LAMMPS data file via write_data, version 22 Aug 2018, timestep = 85130500

12624 atoms
40 atom types
9792 bonds
1 bond types

2.2541707257021142e+02 3.7458292742979057e+02 xlo xhi
2.2472863664740782e+02 3.7527136335259439e+02 ylo yhi
5.4372535215118171e+02 1.2562746478488493e+03 zlo zhi

Masses

1 131.2
2 57.05
3 128.2
4 101.1
5 156.2
6 71.08
7 115.1
8 129.1
9 163.2
10 99.07
11 113.2
12 128.1
13 186.2
14 147.2
15 87.08
16 137.1
17 114.1
18 97.12
19 103.1
20 113.2
21 131.2
22 57.05
23 128.2
24 101.1
25 156.2
26 71.08
27 115.1
28 129.1
29 163.2
30 99.07
31 113.2
32 128.1
33 186.2
34 147.2
35 87.08
36 137.1
37 114.1
38 97.12
39 103.1
40 113.2

Bond Coeffs # harmonic

1 2.39 3.81

Atoms # full

758 2 9 0.0000000000000000e+00 2.6244034044598692e+02 2.4382850744419198e+02 5.5775703585348481e+02 -1 1 0
541 2 2 0.0000000000000000e+00 2.9161087053739755e+02 2.6084385214674364e+02 6.0805062552961135e+02 -1 1 0
762 2 15 0.0000000000000000e+00 2.7202116946845661e+02 2.3672942337897265e+02 5.5984002120526861e+02 -1 1 0
756 2 2 0.0000000000000000e+00 2.5833863200416931e+02 2.3775454193335872e+02 5.5925489194540410e+02 -1 1 0
755 2 2 0.0000000000000000e+00 2.5969210134752245e+02 2.3472951034760632e+02 5.6069055522719475e+02 -1 1 0
759 2 17 0.0000000000000000e+00 2.6555504874477487e+02 2.4377130216111354e+02 5.6042064362749250e+02 -1 1 0
757 2 2 0.0000000000000000e+00 2.6213330241974887e+02 2.3924222264098734e+02 5.5760655524835522e+02 -1 1 0
765 2 9 0.0000000000000000e+00 2.6975359980045715e+02 2.2800318094368492e+02 5.5788624760950461e+02 -1 1 0
764 2 2 0.0000000000000000e+00 2.7150276958714511e+02 2.3120027970161121e+02 5.5716542314356150e+02 -1 1 0
761 2 15 0.0000000000000000e+00 2.6991481420056215e+02 2.3963797788150868e+02 5.5743410700300967e+02 -1 1 0
763 2 2 0.0000000000000000e+00 2.7056444081873400e+02 2.3493797461766880e+02 5.5645308337559175e+02 -1 1 0
724 2 7 -1.0000000000000000e+00 2.8228175049577374e+02 2.5000861073830109e+02 5.7251691339089234e+02 -1 1 0
725 2 12 0.0000000000000000e+00 2.8033236329110417e+02 2.5217801594285484e+02 5.7014138335954669e+02 -1 1 0
760 2 5 1.0000000000000000e+00 2.6732377578247281e+02 2.4042316083833290e+02 5.6074967643301511e+02 -1 1 0
2828 6 7 -1.0000000000000000e+00 2.5832988354416437e+02 2.3243450154670444e+02 6.2922605409331550e+02 1 1 0
11105 22 2 0.0000000000000000e+00 2.9098084163455303e+02 3.0064434389577991e+02 6.2422898441413724e+02 -1 0 1
726 2 15 0.0000000000000000e+00 2.8242326324900091e+02 2.5113257967481161e+02 5.6662174147461417e+02 -1 1 0
7639 15 16 5.0000000000000000e-01 2.3807108858105613e+02 2.7084437414723152e+02 5.6428537149878935e+02 0 0 0
7637 15 15 0.0000000000000000e+00 2.4070648136016965e+02 2.7595589572174572e+02 5.6277611052051304e+02 0 0 0
7638 15 5 1.0000000000000000e+00 2.3914916466529857e+02 2.7193381116545390e+02 5.6142795721412051e+02 0 0 0
7755 15 18 0.0000000000000000e+00 2.5301611209102910e+02 2.6005318320217748e+02 5.6021029369465805e+02 0 0 0
720 2 9 0.0000000000000000e+00 2.8714363258571029e+02 2.5186763740355664e+02 5.6171869074417464e+02 -1 1 0
2797 6 2 0.0000000000000000e+00 2.7708455810462726e+02 2.6241179311061148e+02 6.2931233993926799e+02 1 1 0
711 2 15 0.0000000000000000e+00 2.8862844770811705e+02 2.6301073225263656e+02 5.5244767687755689e+02 -1 1 0
2780 6 17 0.0000000000000000e+00 2.5875665899488456e+02 2.7130134386758914e+02 6.2961370691069192e+02 1 1 0
719 2 2 0.0000000000000000e+00 2.9069766957772907e+02 2.5196008948830413e+02 5.6095976416671249e+02 -1 1 0
710 2 1 0.0000000000000000e+00 2.8839910115841218e+02 2.6642466364005031e+02 5.5470961939918277e+02 -1 1 0
709 2 15 0.0000000000000000e+00 2.8992929116164350e+02 2.7057845427759901e+02 5.5437338726194400e+02 -1 1 0
2830 6 15 0.0000000000000000e+00 2.5308025461392583e+02 2.3251453307833145e+02 6.2767097520027482e+02 1 1 0
4725 9 16 5.0000000000000000e-01 2.7142661752470480e+02 2.2980876969564318e+02 6.2739562042485500e+02 -2 -1 0
620 2 12 0.0000000000000000e+00 2.4227400848560850e+02 2.3993810162131285e+02 6.2142343354670913e+02 -1 1 0
7709 15 38 0.0000000000000000e+00 2.5118167370279741e+02 2.8864581462744150e+02 5.6466142916524711e+02 0 0 0
702 2 17 0.0000000000000000e+00 2.8962100989713235e+02 2.8786950934632716e+02 5.5697496509481073e+02 -1 1 0
2800 6 2 0.0000000000000000e+00 2.7283414596569889e+02 2.5829305995932725e+02 6.2943990340014193e+02 1 1 0
699 2 2 0.0000000000000000e+00 2.8180522517019199e+02 2.9530886662914315e+02 5.6001997826974343e+02 -1 1 0
701 2 2 0.0000000000000000e+00 2.8696919393931722e+02 2.9056309620895945e+02 5.5791694497290848e+02 -1 1 0
692 2 2 0.0000000000000000e+00 2.7180819951525643e+02 2.9257127483598299e+02 5.6771423940919306e+02 -1 1 0
703 2 9 0.0000000000000000e+00 2.8909368034293982e+02 2.8664746748740242e+02 5.5329404837602533e+02 -1 1 0
700 2 2 0.0000000000000000e+00 2.8526418587423910e+02 2.9289445685812336e+02 5.6057908764094645e+02 -1 1 0
3630 7 2 0.0000000000000000e+00 2.9165255697822982e+02 2.6031540431541771e+02 6.2659591839953760e+02 -2 -1 0
691 2 15 0.0000000000000000e+00 2.6844879467955292e+02 2.9145188593378725e+02 5.6749043519867246e+02 -1 1 0
693 2 2 0.0000000000000000e+00 2.7186081359333855e+02 2.9503386898214774e+02 5.6490961014905702e+02 -1 1 0
2765 6 15 0.0000000000000000e+00 2.4128941798378779e+02 2.6915141747875930e+02 6.2475966787090249e+02 1 1 0
660 2 18 0.0000000000000000e+00 2.4720071826725319e+02 2.4704630319028007e+02 5.8672543470553921e+02 -1 1 0
659 2 12 0.0000000000000000e+00 2.4770098905318872e+02 2.4946907422502227e+02 5.8989514477106263e+02 -1 1 0
748 2 2 0.0000000000000000e+00 2.6563018197701581e+02 2.3121593501127012e+02 5.7578146884548448e+02 -1 1 0
747 2 15 0.0000000000000000e+00 2.6503859813397253e+02 2.3545652310840129e+02 5.7621076527254581e+02 -1 1 0
752 2 2 0.0000000000000000e+00 2.6475179208942450e+02 2.3306299284297108e+02 5.6776225448686318e+02 -1 1 0
753 2 2 0.0000000000000000e+00 2.6564019428779716e+02 2.3340012504464417e+02 5.6368776390776702e+02 -1 1 0
754 2 2 0.0000000000000000e+00 2.6334377654217997e+02 2.3331822755050968e+02 5.6064261798321206e+02 -1 1 0
749 2 2 0.0000000000000000e+00 2.6864414021599197e+02 2.3140867761935621e+02 5.7282359843177358e+02 -1 1 0
746 2 2 0.0000000000000000e+00 2.6250314451737404e+02 2.3434195708080750e+02 5.7367798326048342e+02 -1 1 0
744 2 5 1.0000000000000000e+00 2.5792527278238913e+02 2.4035312163763538e+02 5.7506448303865591e+02 -1 1 0
7769 15 2 0.0000000000000000e+00 2.5807074182000713e+02 2.5241688989694512e+02 5.8768260496799144e+02 0 0 0
742 2 5 1.0000000000000000e+00 2.6287205103003572e+02 2.4417109695359125e+02 5.7439669366847852e+02 -1 1 0
743 2 2 0.0000000000000000e+00 2.5942677053836491e+02 2.4280589091533247e+02 5.7264605440310538e+02 -1 1 0
7768 15 2 0.0000000000000000e+00 2.5702480486041543e+02 2.5294067718863812e+02 5.8365785368513002e+02 0 0 0
7766 15 15 0.0000000000000000e+00 2.5294056082399231e+02 2.4887193206314589e+02 5.7954878531633756e+02 0 0 0
745 2 2 0.0000000000000000e+00 2.5975487756154649e+02 2.3692367148802936e+02 5.7514620985049771e+02 -1 1 0
741 2 2 0.0000000000000000e+00 2.6509664529398668e+02 2.4381159126136490e+02 5.7733254758173416e+02 -1 1 0
740 2 2 0.0000000000000000e+00 2.6668116051166157e+02 2.4350515791068986e+02 5.8052945060213506e+02 -1 1 0
739 2 5 1.0000000000000000e+00 2.6701687123044570e+02 2.4142588828464704e+02 5.8425395562503070e+02 -1 1 0
7761 15 9 0.0000000000000000e+00 2.5975330199968437e+02 2.4742757500864997e+02 5.6583424816164802e+02 0 0 0
7762 15 2 0.0000000000000000e+00 2.5648653999145398e+02 2.4915765111991473e+02 5.6744436465430351e+02 0 0 0
7763 15 2 0.0000000000000000e+00 2.5348794374132413e+02 2.4865797738699453e+02 5.7010980952072157e+02 0 0 0
751 2 2 0.0000000000000000e+00 2.6614526827888704e+02 2.3591357278585136e+02 5.7016546408165652e+02 -1 1 0
750 2 2 0.0000000000000000e+00 2.6905586488682673e+02 2.3451522185940203e+02 5.7051599472764087e+02 -1 1 0
7764 15 2 0.0000000000000000e+00 2.5442360295007325e+02 2.4819026434826080e+02 5.7316019836832322e+02 0 0 0
661 2 15 0.0000000000000000e+00 2.4880463081765197e+02 2.4744508899407759e+02 5.8355653764708075e+02 -1 1 0
7760 15 2 0.0000000000000000e+00 2.5900479655044307e+02 2.4804969781101568e+02 5.6179240246588495e+02 0 0 0
7765 15 2 0.0000000000000000e+00 2.5575830003065485e+02 2.4869853596608610e+02 5.7633177027203965e+02 0 0 0
738 2 7 -1.0000000000000000e+00 2.7051200263036918e+02 2.3923691629717564e+02 5.8338808927676848e+02 -1 1 0
723 2 12 0.0000000000000000e+00 2.8446544329145024e+02 2.4789781739711214e+02 5.7038289712555434e+02 -1 1 0
737 2 12 0.0000000000000000e+00 2.7246054985187192e+02 2.4131619807896425e+02 5.8029695923783027e+02 -1 1 0
736 2 12 0.0000000000000000e+00 2.7316782618232685e+02 2.4462030580653376e+02 5.8264794731992743e+02 -1 1 0
727 2 2 0.0000000000000000e+00 2.8010332844980678e+02 2.4877250652623815e+02 5.6611795872519281e+02 -1 1 0
729 2 2 0.0000000000000000e+00 2.7628583944648159e+02 2.4553800156676866e+02 5.7218432038225239e+02 -1 1 0
731 2 15 0.0000000000000000e+00 2.7513706340556536e+02 2.5049887755447529e+02 5.7193749706887957e+02 -1 1 0
728 2 2 0.0000000000000000e+00 2.7794743069298806e+02 2.4727256117778327e+02 5.6841842556121753e+02 -1 1 0
730 2 2 0.0000000000000000e+00 2.7629331736371677e+02 2.4761264342736197e+02 5.7430506725181965e+02 -1 1 0
732 2 2 0.0000000000000000e+00 2.7141793299957902e+02 2.5216074880189956e+02 5.7233908384672725e+02 -1 1 0
735 2 2 0.0000000000000000e+00 2.7414025376341624e+02 2.4665216728354920e+02 5.7862173493291755e+02 -1 1 0
733 2 2 0.0000000000000000e+00 2.6970085016274311e+02 2.4923874006809393e+02 5.7425207245596744e+02 -1 1 0
734 2 9 0.0000000000000000e+00 2.7132769462353298e+02 2.4671702113137627e+02 5.7620315124960860e+02 -1 1 0
4323 9 15 0.0000000000000000e+00 2.8083631711703407e+02 2.5273973121160674e+02 5.8786919122007441e+02 -2 -1 0
11106 22 12 0.0000000000000000e+00 2.9068368106963493e+02 2.9763405375505795e+02 6.2759549457840080e+02 -1 0 1
4690 9 2 0.0000000000000000e+00 2.5115184905034960e+02 2.3795593224892806e+02 6.2919933831352080e+02 -2 -1 0
2769 6 12 0.0000000000000000e+00 2.4818477489668305e+02 2.5724850959937271e+02 6.2187280034615219e+02 1 1 0
4356 9 15 0.0000000000000000e+00 2.6314296139537765e+02 2.4993799777282052e+02 6.2796098245089149e+02 -2 -1 0
4444 9 15 0.0000000000000000e+00 2.8996827329390658e+02 2.3364443112776345e+02 5.6637628046664224e+02 -2 -1 0
2831 6 2 0.0000000000000000e+00 2.5056729572129478e+02 2.2951293927620685e+02 6.2975188227864669e+02 1 1 0
7736 15 5 1.0000000000000000e+00 2.4323551460359008e+02 2.7548791908421492e+02 5.7983650571198825e+02 0 0 0
7737 15 6 0.0000000000000000e+00 2.4645223801055550e+02 2.7550452735140834e+02 5.8077128414497895e+02 0 0 0
665 2 12 0.0000000000000000e+00 2.4826871824350627e+02 2.5857870397075567e+02 5.8425088555808691e+02 -1 1 0
664 2 2 0.0000000000000000e+00 2.4861336580234527e+02 2.5600306655071529e+02 5.8636337844417085e+02 -1 1 0
7636 15 2 0.0000000000000000e+00 2.4371509299906464e+02 2.7448426405287250e+02 5.6396142548562318e+02 0 0 0
7770 15 2 0.0000000000000000e+00 2.5576581275558306e+02 2.5531097054539521e+02 5.8754824841258471e+02 0 0 0
7767 15 2 0.0000000000000000e+00 2.5456892782491002e+02 2.5260381526049645e+02 5.8061377891333450e+02 0 0 0
7635 15 12 0.0000000000000000e+00 2.4742687059644092e+02 2.7290815877291323e+02 5.6440106295979274e+02 0 0 0
7634 15 7 -1.0000000000000000e+00 2.4938812826637613e+02 2.7301936647811897e+02 5.6677117318301532e+02 0 0 0
7759 15 2 0.0000000000000000e+00 2.5872966426526392e+02 2.5185413259700874e+02 5.6278618909728436e+02 0 0 0
7758 15 5 1.0000000000000000e+00 2.5529774089660316e+02 2.5363329606119717e+02 5.6356102705780086e+02 0 0 0
663 2 2 0.0000000000000000e+00 2.5113898158270112e+02 2.5332773337692299e+02 5.8697546900909731e+02 -1 1 0
662 2 9 0.0000000000000000e+00 2.5220898798270989e+02 2.4987407576004858e+02 5.8528212383767686e+02 -1 1 0
7756 15 1 0.0000000000000000e+00 2.5652430237480422e+02 2.5971324215873994e+02 5.5848787933581718e+02 0 0 0
7757 15 2 0.0000000000000000e+00 2.5662065020300560e+02 2.5662511180499155e+02 5.6117265193977039e+02 0 0 0
7753 15 2 0.0000000000000000e+00 2.5343198554194910e+02 2.6103074926445947e+02 5.6694088708430456e+02 0 0 0
7754 15 2 0.0000000000000000e+00 2.5517718529279443e+02 2.6081878455273954e+02 5.6348381160019119e+02 0 0 0
7751 15 2 0.0000000000000000e+00 2.5627448849736891e+02 2.6077262351257195e+02 5.7030403878886489e+02 0 0 0
7771 15 5 1.0000000000000000e+00 2.5444640550923611e+02 2.5881168992758853e+02 5.8753637908241581e+02 0 0 0
7738 15 7 -1.0000000000000000e+00 2.4987955419042746e+02 2.7314465627186655e+02 5.8088657512867098e+02 0 0 0
7752 15 5 1.0000000000000000e+00 2.5159888557767616e+02 2.6197498056268603e+02 5.7027920755687944e+02 0 0 0
7745 15 17 0.0000000000000000e+00 2.6670628721011025e+02 2.6906229579515070e+02 5.7443404851953244e+02 0 0 0
7744 15 2 0.0000000000000000e+00 2.6627893113410875e+02 2.7003359907893764e+02 5.7810777726259812e+02 0 0 0
667 2 12 0.0000000000000000e+00 2.5324171524532022e+02 2.5895351861354754e+02 5.8073098616948528e+02 -1 1 0
666 2 12 0.0000000000000000e+00 2.4999713401364588e+02 2.6046276594749247e+02 5.8138247727126259e+02 -1 1 0
668 2 15 0.0000000000000000e+00 2.5478814404311748e+02 2.6002786077062058e+02 5.7675845540338685e+02 -1 1 0
669 2 9 0.0000000000000000e+00 2.5835012328167511e+02 2.5813224212940349e+02 5.7688166489449884e+02 -1 1 0
7741 15 5 1.0000000000000000e+00 2.5804474205009132e+02 2.7030140718146174e+02 5.8370171697443629e+02 0 0 0
672 2 12 0.0000000000000000e+00 2.6773015478612081e+02 2.5997656293097793e+02 5.7688176909136325e+02 -1 1 0
7742 15 2 0.0000000000000000e+00 2.6104026832581161e+02 2.6750142063047133e+02 5.8151915510880474e+02 0 0 0
670 2 2 0.0000000000000000e+00 2.6223464622537057e+02 2.5760433420196512e+02 5.7915583281646536e+02 -1 1 0
671 2 12 0.0000000000000000e+00 2.6424840461329222e+02 2.6107703707375424e+02 5.7768744813345688e+02 -1 1 0
3144 6 5 1.0000000000000000e+00 2.6482617474915395e+02 2.6222082006792937e+02 5.8743013115117037e+02 1 1 0
3143 6 15 0.0000000000000000e+00 2.6787344771394862e+02 2.6480875593951498e+02 5.8562294999512710e+02 1 1 0
7750 15 5 1.0000000000000000e+00 2.5968871872227533e+02 2.6387656718916355e+02 5.6978664924600025e+02 0 0 0
7749 15 2 0.0000000000000000e+00 2.6146900243940934e+02 2.6364000393014283e+02 5.7297291057848349e+02 0 0 0
7748 15 2 0.0000000000000000e+00 2.6558667913018201e+02 2.6322450680399697e+02 5.7195017182127879e+02 0 0 0
7746 15 2 0.0000000000000000e+00 2.6721072689364729e+02 2.6729447032557300e+02 5.7182037698319027e+02 0 0 0
7743 15 2 0.0000000000000000e+00 2.6445227452842380e+02 2.6745878455901209e+02 5.8032027250609838e+02 0 0 0
7632 15 18 0.0000000000000000e+00 2.5159361981896353e+02 2.6947293039590363e+02 5.7272349352164747e+02 0 0 0
7633 15 5 1.0000000000000000e+00 2.5017573168898326e+02 2.7322103301197853e+02 5.7055406098420133e+02 0 0 0
3148 6 5 1.0000000000000000e+00 2.5283149538578579e+02 2.6581520959610975e+02 5.8360098459758228e+02 1 1 0
678 2 18 0.0000000000000000e+00 2.6832307856048152e+02 2.7649872748691075e+02 5.7461525427144738e+02 -1 1 0
7631 15 2 0.0000000000000000e+00 2.5490227614067007e+02 2.6724957465635839e+02 5.7026845890780464e+02 0 0 0
7628 15 3 1.0000000000000000e+00 2.6261403164575682e+02 2.7589649807714147e+02 5.7345890558645726e+02 0 0 0
3146 6 8 -1.0000000000000000e+00 2.5851191288475195e+02 2.6130214405912909e+02 5.8405222593090105e+02 1 1 0
3147 6 16 5.0000000000000000e-01 2.5647488005810823e+02 2.6414177397351420e+02 5.8169478592103428e+02 1 1 0
3145 6 2 0.0000000000000000e+00 2.6258338627691296e+02 2.6104420250548185e+02 5.8416242191413153e+02 1 1 0
722 2 17 0.0000000000000000e+00 2.8739682628009552e+02 2.4932373513402007e+02 5.6876348546859492e+02 -1 1 0
721 2 2 0.0000000000000000e+00 2.8746280598006410e+02 2.5093760165126844e+02 5.6532644324916589e+02 -1 1 0
673 2 12 0.0000000000000000e+00 2.7105488404228248e+02 2.6212158957735437e+02 5.7682622296997340e+02 -1 1 0
674 2 15 0.0000000000000000e+00 2.7174087441682678e+02 2.6598574637459149e+02 5.7595225675144593e+02 -1 1 0
7747 15 5 1.0000000000000000e+00 2.6902867977474432e+02 2.6434726601761224e+02 5.7068891949414410e+02 0 0 0
677 2 18 0.0000000000000000e+00 2.6975110432713882e+02 2.7532432098869094e+02 5.7218158346299015e+02 -1 1 0
676 2 17 0.0000000000000000e+00 2.7182623585537954e+02 2.7237921517111397e+02 5.7432840650014646e+02 -1 1 0
675 2 9 0.0000000000000000e+00 2.7336437025476278e+02 2.6896417497370226e+02 5.7417728191977051e+02 -1 1 0
3137 6 2 0.0000000000000000e+00 2.7927194270563950e+02 2.7311837577107906e+02 5.8575034137134264e+02 1 1 0
3138 6 18 0.0000000000000000e+00 2.7691026101755477e+02 2.7392428307445152e+02 5.8869604486281844e+02 1 1 0
684 2 12 0.0000000000000000e+00 2.7905919103893132e+02 2.7710910248371135e+02 5.7419415994618953e+02 -1 1 0
4322 9 2 0.0000000000000000e+00 2.8409592465045063e+02 2.5326269502188566e+02 5.8556088346733259e+02 -2 -1 0
4321 9 9 0.0000000000000000e+00 2.8399349573757956e+02 2.5713334488201860e+02 5.8380781947508399e+02 -2 -1 0
3135 6 2 0.0000000000000000e+00 2.8166156886474261e+02 2.6781877778289675e+02 5.8486381843969127e+02 1 1 0
3136 6 14 0.0000000000000000e+00 2.7854483125355472e+02 2.6977067764597291e+02 5.8521366073721447e+02 1 1 0
4320 9 15 0.0000000000000000e+00 2.8670724347547599e+02 2.5912593293923442e+02 5.8619284612026547e+02 -2 -1 0
4319 9 2 0.0000000000000000e+00 2.8997669974428169e+02 2.6053098793977665e+02 5.8549773931144455e+02 -2 -1 0
4307 9 2 0.0000000000000000e+00 2.9019016796451655e+02 2.7069516206649007e+02 5.8713636579539195e+02 -2 -1 0
7735 15 25 1.0000000000000000e+00 2.4298272789145457e+02 2.7701826641551713e+02 5.7576065085278719e+02 0 0 0
7648 15 17 0.0000000000000000e+00 2.4347779973038038e+02 2.8730672614790421e+02 5.6863581265359778e+02 0 0 0
7649 15 37 0.0000000000000000e+00 2.4744169878628841e+02 2.8853999555278426e+02 5.7036214342410108e+02 0 0 0
7706 15 27 -1.0000000000000000e+00 2.4757755373337167e+02 2.9506128385809711e+02 5.7017550315311803e+02 0 0 0
7650 15 24 0.0000000000000000e+00 2.4688925551395803e+02 2.8757288918191057e+02 5.7398962708628903e+02 0 0 0
7640 15 7 -1.0000000000000000e+00 2.3460857711029536e+02 2.7193204134320968e+02 5.6609952599488724e+02 0 0 0
7641 15 15 0.0000000000000000e+00 2.3419282445907959e+02 2.7125501395456786e+02 5.6971903974259124e+02 0 0 0
7642 15 8 -1.0000000000000000e+00 2.3314106259570806e+02 2.7463919235142373e+02 5.7049747497728288e+02 0 0 0
7647 15 7 -1.0000000000000000e+00 2.3999806831505219e+02 2.8550292840515317e+02 5.6865139043734939e+02 0 0 0
7646 15 15 0.0000000000000000e+00 2.3669338154753439e+02 2.8435645813589383e+02 5.6949168230287307e+02 0 0 0
7677 15 24 0.0000000000000000e+00 2.4681824297275168e+02 2.9935012548447037e+02 5.7608606892928174e+02 0 0 0
7676 15 23 1.0000000000000000e+00 2.4717132918145356e+02 2.9581372543148018e+02 5.7472838544260787e+02 0 0 0
7704 15 35 0.0000000000000000e+00 2.4752836181304647e+02 2.9114634045971104e+02 5.7587542579989804e+02 0 0 0
7644 15 7 -1.0000000000000000e+00 2.3671773940112899e+02 2.7959649339609894e+02 5.7603736984071770e+02 0 0 0
7643 15 12 0.0000000000000000e+00 2.3524151789107989e+02 2.7620103596664069e+02 5.7348144948802087e+02 0 0 0
7645 15 17 0.0000000000000000e+00 2.3591343232638926e+02 2.8336217396269308e+02 5.7336290299384302e+02 0 0 0
7678 15 37 0.0000000000000000e+00 2.4368121110259571e+02 3.0013369057873058e+02 5.7808966848523255e+02 0 0 0
7685 15 21 0.0000000000000000e+00 2.4680132323369864e+02 2.9547541278964695e+02 5.7990339390377460e+02 0 0 0
7734 15 24 0.0000000000000000e+00 2.4649996989082169e+02 2.7833783535412647e+02 5.7517272733471248e+02 0 0 0
7687 15 37 0.0000000000000000e+00 2.4615295656262020e+02 2.8958310946603046e+02 5.8352385333593793e+02 0 0 0
7739 15 14 0.0000000000000000e+00 2.5362877471628767e+02 2.7468818999002463e+02 5.8128373964688285e+02 0 0 0
7740 15 17 0.0000000000000000e+00 2.5707840850508018e+02 2.7349838222711207e+02 5.8274325914435565e+02 0 0 0
7630 15 2 0.0000000000000000e+00 2.5852455270797543e+02 2.6985300893748422e+02 5.7062054832494277e+02 0 0 0
3140 6 3 1.0000000000000000e+00 2.6987134622132794e+02 2.7429322618346407e+02 5.8795256223310753e+02 1 1 0
7708 15 38 0.0000000000000000e+00 2.4810913735125814e+02 2.8937459263325093e+02 5.6685532617019101e+02 0 0 0
7707 15 27 -1.0000000000000000e+00 2.4896360790990619e+02 2.9310689919419963e+02 5.6721883972548403e+02 0 0 0
7705 15 34 0.0000000000000000e+00 2.4893355858718863e+02 2.9244162296046306e+02 5.7258049865733972e+02 0 0 0
7684 15 38 0.0000000000000000e+00 2.4917570079018850e+02 2.9815410806686475e+02 5.7859980113978588e+02 0 0 0
7686 15 40 0.0000000000000000e+00 2.4794588903381586e+02 2.9219127994350151e+02 5.8141280919778012e+02 0 0 0
706 2 7 -1.0000000000000000e+00 2.9097733660078427e+02 2.7827768120453027e+02 5.5782279227025072e+02 -1 1 0
7710 15 35 0.0000000000000000e+00 2.5329046799526776e+02 2.9046491797149440e+02 5.6723514087304613e+02 0 0 0
7711 15 26 0.0000000000000000e+00 2.5222865660071778e+02 2.8796152250231648e+02 5.6988928958857889e+02 0 0 0
7674 15 40 0.0000000000000000e+00 2.5272342525887782e+02 2.9682819918746384e+02 5.7143391672729490e+02 0 0 0
7733 15 26 0.0000000000000000e+00 2.4711598649631858e+02 2.8206982847666939e+02 5.7482293366321312e+02 0 0 0
7651 15 40 0.0000000000000000e+00 2.4986673177572902e+02 2.8559037638160396e+02 5.7526675484283044e+02 0 0 0
7675 15 40 0.0000000000000000e+00 2.5097081599199240e+02 2.9564390948707580e+02 5.7458372600786402e+02 0 0 0
7703 15 30 0.0000000000000000e+00 2.4983768327981872e+02 2.8959258985327676e+02 5.7845816878831329e+02 0 0 0
7670 15 23 1.0000000000000000e+00 2.5718026241494658e+02 2.9641265854353173e+02 5.7481665396117330e+02 0 0 0
679 2 12 0.0000000000000000e+00 2.6977086488135984e+02 2.7688673094098806e+02 5.7780228271956707e+02 -1 1 0
7732 15 34 0.0000000000000000e+00 2.4988288298142345e+02 2.8205615404760681e+02 5.7221368385735309e+02 0 0 0
7712 15 23 1.0000000000000000e+00 2.5359833327963054e+02 2.8506103911713285e+02 5.6786693086496336e+02 0 0 0
7673 15 22 0.0000000000000000e+00 2.5557429069098345e+02 2.9491714051297686e+02 5.6983040880281590e+02 0 0 0
7721 15 23 1.0000000000000000e+00 2.6300515709720639e+02 2.8391564382902789e+02 5.7865715641101667e+02 0 0 0
7731 15 35 0.0000000000000000e+00 2.5265083575196383e+02 2.8119379338597992e+02 5.7467652100477085e+02 0 0 0
7629 15 14 0.0000000000000000e+00 2.5950471111938197e+02 2.7302378067223356e+02 5.7235654538887911e+02 0 0 0
7627 15 17 0.0000000000000000e+00 2.6358706520378979e+02 2.7836541407036009e+02 5.7032593609527999e+02 0 0 0
7719 15 27 -1.0000000000000000e+00 2.5916340668212126e+02 2.8131647405978447e+02 5.7505333951349280e+02 0 0 0
7720 15 22 0.0000000000000000e+00 2.6152936579719062e+02 2.8050180367781275e+02 5.7790043026471142e+02 0 0 0
7715 15 40 0.0000000000000000e+00 2.5665371606134249e+02 2.8368820692363113e+02 5.7161436931247863e+02 0 0 0
7716 15 27 -1.0000000000000000e+00 2.5931906669409932e+02 2.8294621013558071e+02 5.6904257870726474e+02 0 0 0
7714 15 26 0.0000000000000000e+00 2.5719936236788163e+02 2.8734455368251508e+02 5.7087142597889328e+02 0 0 0
7713 15 26 0.0000000000000000e+00 2.5686296171413102e+02 2.8684500482182330e+02 5.6712769732511958e+02 0 0 0
7626 15 14 0.0000000000000000e+00 2.6637140599151968e+02 2.7993226694541966e+02 5.6949173804517545e+02 0 0 0
7718 15 34 0.0000000000000000e+00 2.6068811746862377e+02 2.8480577669951720e+02 5.7482910566322209e+02 0 0 0
7730 15 30 0.0000000000000000e+00 2.5542512947862153e+02 2.8288761703875673e+02 5.7664967440865234e+02 0 0 0
7717 15 33 0.0000000000000000e+00 2.6173673089755187e+02 2.8495277544071064e+02 5.7117775850847806e+02 0 0 0
7672 15 40 0.0000000000000000e+00 2.5880701750243725e+02 2.9302440733515596e+02 5.7036372082839432e+02 0 0 0
7729 15 23 1.0000000000000000e+00 2.5721187489491598e+02 2.8073928411295640e+02 5.7922564857254918e+02 0 0 0
7722 15 28 -1.0000000000000000e+00 2.6376565415813093e+02 2.8535537668923564e+02 5.8208178753440734e+02 0 0 0
7728 15 40 0.0000000000000000e+00 2.5926532791301679e+02 2.8253293562375165e+02 5.8187254061448391e+02 0 0 0
7653 15 30 0.0000000000000000e+00 2.5361443146362413e+02 2.8434632833859166e+02 5.8057723009401445e+02 0 0 0
7652 15 34 0.0000000000000000e+00 2.5058019813915323e+02 2.8357960402123751e+02 5.7840807686135531e+02 0 0 0
7669 15 34 0.0000000000000000e+00 2.5735692504557693e+02 2.9318759480889958e+02 5.7682540940477270e+02 0 0 0
7668 15 29 0.0000000000000000e+00 2.6003595957961738e+02 2.9440921776180278e+02 5.7924046784588313e+02 0 0 0
7702 15 24 0.0000000000000000e+00 2.4874713213630758e+02 2.8665547067063801e+02 5.8060603062954124e+02 0 0 0
7654 15 32 0.0000000000000000e+00 2.5443208707705372e+02 2.8196640648007110e+02 5.8342542769363843e+02 0 0 0
7665 15 30 0.0000000000000000e+00 2.5558337736524678e+02 2.9308323937759201e+02 5.8181584088505110e+02 0 0 0
7666 15 26 0.0000000000000000e+00 2.5470660140671157e+02 2.9616693598013273e+02 5.7981243896126671e+02 0 0 0
7663 15 28 -1.0000000000000000e+00 2.5413657798734414e+02 2.9775424975326553e+02 5.8407145810151110e+02 0 0 0
7727 15 38 0.0000000000000000e+00 2.6250732796602966e+02 2.8195523129316223e+02 5.8379491632174040e+02 0 0 0
7664 15 35 0.0000000000000000e+00 2.5688917388275615e+02 2.9521450757740877e+02 5.8465171726685685e+02 0 0 0
7723 15 34 0.0000000000000000e+00 2.6185194574371917e+02 2.8780692969847928e+02 5.8425843286457894e+02 0 0 0
7667 15 27 -1.0000000000000000e+00 2.5820583296247423e+02 2.9753448235537542e+02 5.8038801259856905e+02 0 0 0
7671 15 32 0.0000000000000000e+00 2.6016040806716609e+02 2.9582876232663284e+02 5.7253423687946236e+02 0 0 0
10897 21 5 1.0000000000000000e+00 2.6822442567988566e+02 2.9909555964258504e+02 5.8592807245726590e+02 0 -1 1
7725 15 22 0.0000000000000000e+00 2.6631732551194477e+02 2.8673834389520653e+02 5.8677235134306136e+02 0 0 0
7655 15 22 0.0000000000000000e+00 2.5741532777679379e+02 2.8213172352277672e+02 5.8576163032978604e+02 0 0 0
7701 15 26 0.0000000000000000e+00 2.5013244720199899e+02 2.8632313998023017e+02 5.8411654826731058e+02 0 0 0
7662 15 40 0.0000000000000000e+00 2.5154222267492329e+02 2.9502580981500751e+02 5.8449776442554958e+02 0 0 0
7724 15 35 0.0000000000000000e+00 2.6430828528691148e+02 2.8991776566665465e+02 5.8625301977987363e+02 0 0 0
2770 6 12 0.0000000000000000e+00 2.5122842271368768e+02 2.5850157344773368e+02 6.2386844897639423e+02 1 1 0
688 2 17 0.0000000000000000e+00 2.7489975989564249e+02 2.9037714173945051e+02 5.7328984714748708e+02 -1 1 0
697 2 2 0.0000000000000000e+00 2.7648060129966643e+02 2.9619541551755697e+02 5.6376899821397353e+02 -1 1 0
698 2 2 0.0000000000000000e+00 2.7923164188992700e+02 2.9830657643450127e+02 5.6072719885182858e+02 -1 1 0
7614 15 2 0.0000000000000000e+00 2.8831071797259995e+02 2.8357235284417902e+02 5.8384762630030173e+02 0 0 0
680 2 2 0.0000000000000000e+00 2.7374282128639061e+02 2.7755554839987519e+02 5.7871015089419143e+02 -1 1 0
7625 15 2 0.0000000000000000e+00 2.6724851449290509e+02 2.8305844229799936e+02 5.7159476987884011e+02 0 0 0
681 2 9 0.0000000000000000e+00 2.7455457940150905e+02 2.7445330638506061e+02 5.8096822611672712e+02 -1 1 0
7624 15 2 0.0000000000000000e+00 2.6904081543168843e+02 2.8212425534701049e+02 5.7483651402812700e+02 0 0 0
690 2 15 0.0000000000000000e+00 2.6829647411018499e+02 2.8937327368329807e+02 5.7060818627958190e+02 -1 1 0
689 2 15 0.0000000000000000e+00 2.7112478034256327e+02 2.9105636925318493e+02 5.7206181276338577e+02 -1 1 0
687 2 9 0.0000000000000000e+00 2.7446544888894823e+02 2.8747186904158025e+02 5.7457784455962690e+02 -1 1 0
694 2 2 0.0000000000000000e+00 2.7032196894219186e+02 2.9835643518039001e+02 5.6590416639793557e+02 -1 1 0
695 2 2 0.0000000000000000e+00 2.7439827877242021e+02 2.9901273118053439e+02 5.6815527353919094e+02 -1 1 0
682 2 2 0.0000000000000000e+00 2.7611315826190008e+02 2.7379597467357917e+02 5.7739715010625207e+02 -1 1 0
7623 15 5 1.0000000000000000e+00 2.7037748911484897e+02 2.8358245147999662e+02 5.7827661972595433e+02 0 0 0
7622 15 7 -1.0000000000000000e+00 2.7240020929129543e+02 2.8424095854206655e+02 5.8092291562248693e+02 0 0 0
7621 15 15 0.0000000000000000e+00 2.7472229429606216e+02 2.8263927084648753e+02 5.8368561346420199e+02 0 0 0
7620 15 2 0.0000000000000000e+00 2.7832133627767297e+02 2.8330182693765607e+02 5.8203810121385959e+02 0 0 0
7619 15 2 0.0000000000000000e+00 2.7872738732205653e+02 2.8392285492985764e+02 5.8635038064664172e+02 0 0 0
7815 15 23 1.0000000000000000e+00 2.7796304989761990e+02 2.7624729956070519e+02 6.1164417681608620e+02 0 0 0
2833 6 2 0.0000000000000000e+00 2.4599042905077255e+02 2.3142785768822529e+02 6.2843227351116343e+02 1 1 0
7615 15 5 1.0000000000000000e+00 2.8780540615350316e+02 2.8233910225780710e+02 5.8729719514524788e+02 0 0 0
683 2 12 0.0000000000000000e+00 2.7938507809186427e+02 2.7572182725815912e+02 5.7767936680080300e+02 -1 1 0
7807 15 28 -1.0000000000000000e+00 2.7680664204378871e+02 2.8134398496879851e+02 6.1318268044682918e+02 0 0 0
686 2 12 0.0000000000000000e+00 2.7644062333905697e+02 2.8435460804134630e+02 5.7330167812389527e+02 -1 1 0
685 2 17 0.0000000000000000e+00 2.7661242298586171e+02 2.8069647139583299e+02 5.7393456532289497e+02 -1 1 0
10800 21 7 -1.0000000000000000e+00 2.8164661578341577e+02 2.9027071925193900e+02 5.8472709447131160e+02 0 -1 1
10799 21 12 0.0000000000000000e+00 2.8485239156674811e+02 2.8804867475768901e+02 5.8450485395276542e+02 0 -1 1
10797 21 15 0.0000000000000000e+00 2.8671641503983921e+02 2.9193586004873714e+02 5.8027092384383275e+02 0 -1 1
696 2 2 0.0000000000000000e+00 2.7794604588890343e+02 2.9806506292325969e+02 5.6628074792439440e+02 -1 1 0
10801 21 17 0.0000000000000000e+00 2.8050451771539417e+02 2.9287930102656799e+02 5.8326102155670196e+02 0 -1 1
10802 21 15 0.0000000000000000e+00 2.7902225868441496e+02 2.9648689945759008e+02 5.8342254822634015e+02 0 -1 1