# LAMMPS data file written by OVITO Basic 3.7.8
14880 atoms
8400 bonds
40 atom types
1 bond types
301.5436041312 417.867069765 xlo xhi
310.0591713014 426.7201674084 ylo yhi
200.6105733971 1300.1030809173 zlo zhi

Masses

1 131.2
2 57.05
3 128.2
4 101.1
5 156.2
6 71.08
7 115.1
8 129.1
9 163.2
10 99.07
11 113.2
12 128.1
13 186.2
14 147.2
15 87.08
16 137.1
17 114.1
18 97.12
19 103.1
20 113.2
21 131.2
22 57.05
23 128.2
24 101.1
25 156.2
26 71.08
27 115.1
28 129.1
29 163.2
30 99.07
31 113.2
32 128.1
33 186.2
34 147.2
35 87.08
36 137.1
37 114.1
38 97.12
39 103.1
40 113.2

Atoms  # full

12729 35 22 0.0 302.0680131467 321.9754715898 764.5771930025 0 1 0
12670 35 35 0.0 301.760449326 314.6232799927 765.7195996363 0 1 0
12728 35 27 -1.0 304.3944423141 320.417765818 767.092719063 0 1 0
12674 35 24 0.0 308.4288267012 313.1843450784 771.4997438753 0 1 0
12672 35 28 -1.0 306.863291107 313.7503467831 765.3714189897 0 1 0
12671 35 34 0.0 303.773652992 311.3703012932 765.1446186111 0 1 0
12673 35 24 0.0 305.9551175907 314.6420262342 768.9642029152 0 1 0
12678 35 31 0.0 305.3270133019 317.2241150024 774.6147504554 0 1 0
12677 35 35 0.0 308.5886220678 318.2789261752 772.9541138688 0 1 0
12676 35 28 -1.0 310.6736317839 316.1174873384 775.2478535247 0 1 0
12675 35 27 -1.0 308.4142120475 313.0206030102 775.2640355737 0 1 0
12727 35 30 0.0 301.7408365004 320.867131047 769.7521250875 0 1 0
12681 35 36 0.5 304.897693302 322.3964701332 775.5175781282 0 1 0
11996 33 5 1.0 319.3031404419 310.8344886074 775.5958453674 0 0 0
12711 35 26 0.0 302.0692494012 318.3137708929 790.0868151344 0 1 0
11909 33 8 -1.0 325.8847467317 310.1724941942 786.6321703462 0 0 0
12684 35 32 0.0 304.069163126 326.2208963886 780.1459630904 0 1 0
12682 35 34 0.0 302.8654211991 321.4105548511 778.5209350459 0 1 0
11910 33 15 0.0 323.1822086789 310.946900153 789.3049121195 0 0 0
12683 35 28 -1.0 305.3737139568 322.783817544 781.0794187446 0 1 0
9158 25 2 0.0 311.7544559135 318.2508386707 791.0103019386 0 1 0
9160 25 5 1.0 314.1230627617 324.3837749493 788.0649949103 0 1 0
9159 25 15 0.0 311.5355113822 321.5733850685 788.9249061867 0 1 0
9161 25 2 0.0 317.4037587669 325.8441452979 788.1739989976 0 1 0
9162 25 2 0.0 318.7123813555 329.4781621981 787.4533073 0 1 0
9155 25 2 0.0 319.4243791975 319.9978367949 790.8088796653 0 1 0
9153 25 5 1.0 325.1125220846 322.1769804316 789.7788391105 0 1 0
9154 25 2 0.0 322.7346200186 319.7933229588 791.6963703531 0 1 0
12691 35 39 0.0 305.2779413988 313.0115704957 780.2658234489 0 1 0
9163 25 2 0.0 321.353385938 332.1665098995 785.8205392656 0 1 0
11916 33 32 0.0 312.7829339506 310.3536899273 780.7135337665 0 0 0
11911 33 18 0.0 320.6029094367 312.571558421 791.6804602065 0 0 0
11912 33 23 1.0 316.5661310152 313.2583441536 790.9686115182 0 0 0
11915 33 28 -1.0 312.2164959425 311.7982344469 784.2181728105 0 0 0
11914 33 38 0.0 315.8292696253 312.8297138943 784.6147310746 0 0 0
11913 33 28 -1.0 317.2498220638 311.2307848386 787.8407061981 0 0 0
9157 25 2 0.0 313.3020804852 318.779062585 794.7054618782 0 1 0
9156 25 14 0.0 316.8883243075 319.9565681992 793.7444416199 0 1 0
12689 35 24 0.0 306.0292748098 315.0105294911 786.995819644 0 1 0
12680 35 35 0.0 308.3388040261 321.5472395107 776.7429313466 0 1 0
9164 25 2 0.0 324.9999843705 331.3227321962 787.7114259005 0 1 0
12692 35 30 0.0 305.1379789889 310.100651272 777.7923347715 0 1 0
9165 25 9 0.0 323.9977487004 330.5935532915 791.275618167 0 1 0
12690 35 27 -1.0 305.6016855972 312.6553268951 783.997244433 0 1 0
12679 35 25 1.0 306.9469908947 318.190665147 777.9209559344 0 1 0
12688 35 31 0.0 305.1934018245 318.0215135923 784.9089220229 0 1 0
9166 25 2 0.0 326.7331631025 329.1081967145 793.4393088499 0 1 0
12687 35 24 0.0 305.3245673072 321.3890566324 786.69891217 0 1 0
11908 33 15 0.0 326.7851751968 310.6199791891 782.7593934871 0 0 0
9152 25 2 0.0 325.9927470578 321.8307636401 785.9962720732 0 1 0
12147 33 2 0.0 305.4341042402 316.5228414812 794.7302082202 0 0 0
12686 35 22 0.0 302.7594906156 323.7578567576 785.3251370482 0 1 0
11907 33 3 1.0 328.1122062798 310.2543963871 779.1958110624 0 0 0
9151 25 15 0.0 328.9456523308 320.3006848494 783.7864635932 0 1 0
9126 25 2 0.0 354.798633751 325.9266228508 789.9474719041 0 1 0
9125 25 15 0.0 353.7142550208 329.4253937953 788.775160717 0 1 0
12007 33 24 0.0 330.0607058134 311.4702433224 794.6159379914 0 0 0
9144 25 14 0.0 338.8101724374 329.070007986 790.1269605135 0 1 0
9145 25 2 0.0 338.0430617139 325.2128464458 790.0078866889 0 1 0
9140 25 2 0.0 347.6402933234 333.2701622511 790.095850361 0 1 0
9141 25 17 0.0 344.5364523313 334.3836592453 788.5796986802 0 1 0
9143 25 17 0.0 339.2382484432 331.4913021097 786.9614095964 0 1 0
9142 25 7 -1.0 341.496011719 334.4192688028 786.3224176695 0 1 0
9139 25 2 0.0 350.020223974 336.5310964027 789.8553622618 0 1 0
9148 25 2 0.0 336.4578474845 318.1558017961 787.4713638976 0 1 0
12036 33 28 -1.0 346.5712167811 311.245181455 792.9041100112 0 0 0
12058 33 27 -1.0 341.3022281952 310.3416767979 789.8797922686 0 0 0
9147 25 2 0.0 339.8695961069 319.5087203361 788.4728250478 0 1 0
9138 25 14 0.0 353.2301400964 336.7893192903 792.0634923425 0 1 0
9137 25 2 0.0 355.4756740068 334.2226032923 793.620749984 0 1 0
9150 25 14 0.0 332.0014377026 318.3008225867 782.7885618983 0 1 0
9146 25 5 1.0 340.77935019 322.8697363606 788.6094177915 0 1 0
9149 25 17 0.0 334.7384024786 316.2835679677 784.8858718024 0 1 0
9030 25 11 0.0 353.2351341059 322.2667033108 795.1120921106 0 1 0
9031 25 24 0.0 354.0638869365 326.1102271098 795.0028748009 0 1 0
12009 33 23 1.0 337.1580553464 311.2252757067 794.9233437854 0 0 0
9124 25 5 1.0 352.1472913739 330.9831696034 785.7804818658 0 1 0
9123 25 2 0.0 355.5794838288 333.1532677963 785.897561439 0 1 0
12008 33 30 0.0 333.6152158987 312.1864136584 795.7974991998 0 0 0
9371 26 26 0.0 306.7069172018 362.1214752019 789.8701046465 1 0 0
9372 26 21 0.0 304.662630836 364.2912782901 792.2533708097 1 0 0
9370 26 26 0.0 306.6782162788 364.7500801546 787.1363501076 1 0 0
9000 25 21 0.0 324.1034635252 340.0601446473 795.2717850625 0 1 0
9001 25 37 0.0 320.4235982048 339.3576136227 794.584561061 0 1 0
9003 25 25 1.0 322.2083658843 343.5081934558 791.4776870307 0 1 0
9004 25 38 0.0 322.484885366 345.4354729615 789.3520972377 0 1 0
9012 25 30 0.0 329.2835456494 348.6163402234 789.7433053522 0 1 0
9005 25 36 0.5 323.6907573377 348.055903642 791.7590762213 0 1 0
9011 25 30 0.0 326.6514088022 350.3677535611 787.6785892201 0 1 0
9002 25 26 0.0 319.7936720198 343.1074116655 794.426677903 0 1 0
9336 26 32 0.0 308.8278064613 355.9507770677 784.9611670302 1 0 0
9335 26 28 -1.0 312.0308917936 355.5101294735 786.9420889646 1 0 0
9340 26 31 0.0 317.0145590289 358.0620476074 789.3974439632 1 0 0
9006 25 23 1.0 323.8955205912 351.6354986244 790.6054647103 0 1 0
9010 25 25 1.0 327.3606075328 354.0648187038 787.9279231049 0 1 0
9009 25 22 0.0 325.1743666433 356.9603805754 789.2183711886 0 1 0
9332 26 35 0.0 311.5530431691 350.4069774492 788.6277387808 1 0 0
9007 25 30 0.0 326.0485117582 353.4446204837 793.0868156764 0 1 0
9341 26 24 0.0 320.4621968529 358.7387820378 790.7285988334 1 0 0
9331 26 25 1.0 313.421705407 352.1657846291 791.4584378363 1 0 0
9334 26 34 0.0 309.8251474358 355.7048175624 790.076992929 1 0 0
9333 26 36 0.5 308.4584274963 352.221805842 789.7219613022 1 0 0
9329 26 35 0.0 311.0975920228 347.6755787956 792.8008389574 1 0 0
9328 26 28 -1.0 314.8736757616 347.5598981185 792.8704325481 1 0 0
9008 25 27 -1.0 326.5295856531 357.1801359611 792.7224743371 0 1 0
9339 26 24 0.0 316.3494085775 359.1990139518 785.8171123221 1 0 0
9337 26 33 0.0 309.0849528773 359.6854700598 785.7405633684 1 0 0
9338 26 22 0.0 312.7850938125 360.2836710406 785.3794077272 1 0 0
9342 26 27 -1.0 319.6379565974 357.0540866211 794.074860755 1 0 0
9362 26 29 0.0 315.9683907082 362.2224975835 790.5756093688 1 0 0
9374 26 26 0.0 301.7926451673 361.3221812594 788.8556662392 1 0 0
9330 26 31 0.0 310.9909469905 351.2074462954 794.2267961437 1 0 0
9343 26 39 0.0 316.8962856225 354.8630566877 795.4296924459 1 0 0
9360 26 30 0.0 314.446233916 358.3489280946 795.6790377612 1 0 0
9379 26 30 0.0 303.9549122417 350.8044506774 794.5449390827 1 0 0
9380 26 27 -1.0 303.937672914 347.049549632 795.0070225027 1 0 0
9361 26 24 0.0 316.612880268 361.0043988467 794.1192070481 1 0 0
9363 26 26 0.0 318.466657153 363.81812251 788.2115556337 1 0 0
9119 25 15 0.0 349.9305336773 340.6455753032 784.6724163384 0 1 0
9013 25 28 -1.0 330.5464650431 345.0339574091 789.7597597047 0 1 0
9014 25 38 0.0 330.2467320037 343.22552643 793.1145691811 0 1 0
9015 25 23 1.0 332.0211294427 339.8905348911 793.4395234018 0 1 0
8950 25 35 0.0 332.469448314 355.9824917904 790.3373693439 0 1 0
9120 25 15 0.0 353.9876893399 340.0109626809 785.1544428987 0 1 0
8948 25 22 0.0 333.7946125742 349.7372444988 788.5194390583 0 1 0
9118 25 15 0.0 348.7513321759 343.834558504 786.6424054062 0 1 0
9117 25 6 0.0 346.7270239741 344.6329611742 789.7186879707 0 1 0
9116 25 15 0.0 343.1637769294 345.0235874124 792.0414055794 0 1 0
9115 25 6 0.0 341.6907131803 342.1546267822 794.1110226722 0 1 0
8946 25 40 0.0 333.0564055855 346.2374733478 794.341362744 0 1 0
8945 25 34 0.0 334.8051565972 343.4197654864 796.126131795 0 1 0
8947 25 22 0.0 334.6637095272 347.0645593331 790.9986453911 0 1 0
8985 25 34 0.0 337.099818742 349.7898257581 793.4615880303 0 1 0
8976 25 27 -1.0 345.9490608772 356.1762991241 795.784817928 0 1 0
8983 25 25 1.0 341.3053717866 353.5490307037 792.3419144991 0 1 0
8949 25 31 0.0 333.1089573178 352.4370163838 791.1076392832 0 1 0
8984 25 22 0.0 337.7625343789 352.742169665 791.207524364 0 1 0
8951 25 34 0.0 335.6730275658 357.9003758514 791.3480850951 0 1 0
8952 25 28 -1.0 333.1791054313 360.1648529345 793.3301970603 0 1 0
8982 25 35 0.0 339.8917805053 356.720565162 793.9198248119 0 1 0
8981 25 25 1.0 342.1506636839 359.7661085816 794.0192590626 0 1 0
8953 25 24 0.0 332.1517686083 357.1991615063 795.4907133624 0 1 0
8979 25 24 0.0 346.8613397106 361.6008484366 795.5016229964 0 1 0
9121 25 12 0.0 356.2578927231 337.7695152872 782.7023895289 0 1 0
12160 33 2 0.0 307.7109975975 335.3441517173 803.3129269546 0 0 0
12655 35 18 0.0 302.2542505601 315.2122056529 798.7460723255 0 1 0
9193 25 5 1.0 316.7615296569 331.6474637338 813.9709215717 0 1 0
9186 25 18 0.0 326.8841302874 321.9890661756 814.5553287051 0 1 0
12654 35 15 0.0 303.5039364124 315.8764714707 802.1369768104 0 1 0
12166 33 2 0.0 302.0457629994 332.8198286204 807.2204593697 0 0 0
12653 35 8 -1.0 304.6320500447 316.5024596609 805.6099633782 0 1 0
12150 33 2 0.0 303.0739956285 324.3548950735 799.3677315479 0 0 0
9167 25 2 0.0 327.9109214352 330.8003785142 796.7676552453 0 1 0
9169 25 2 0.0 327.1402708336 324.5686554836 796.5166527265 0 1 0
12149 33 17 0.0 305.3353438128 321.5079672683 799.156766484 0 0 0
12145 33 2 0.0 307.1991471803 310.0765241468 798.196167103 0 0 0
12146 33 7 -1.0 306.9758889692 313.3035591104 796.3397451419 0 0 0
12148 33 9 0.0 307.0981919755 319.2443660506 796.5759841918 0 0 0
9179 25 2 0.0 313.8671922734 328.469833693 810.7137324533 0 1 0
12162 33 18 0.0 307.0816914483 330.1564247443 805.4001221101 0 0 0
9170 25 7 -1.0 326.2947017571 321.4475422091 797.830516296 0 1 0
12161 33 2 0.0 309.5701158723 332.8193935036 805.2564335465 0 0 0
9178 25 7 -1.0 313.0040960506 329.9779961087 807.7570259239 0 1 0
12164 33 9 0.0 308.427307676 332.4067106825 811.1516480324 0 0 0
12163 33 2 0.0 308.5652870576 329.310961955 808.9174025702 0 0 0
9171 25 2 0.0 323.3275006726 319.432505186 799.0760178249 0 1 0
9177 25 17 0.0 314.4362454709 327.4848293031 805.2401575094 0 1 0
12096 33 15 0.0 314.3178491913 315.0338668334 803.5860858825 0 0 0
12089 33 8 -1.0 323.3752991902 311.7081606338 801.1154353312 0 0 0
12650 35 15 0.0 304.3302835786 319.5568109946 810.5849985083 0 1 0
12097 33 12 0.0 312.3989135835 318.0920196982 802.3798505849 0 0 0
9172 25 9 0.0 320.9828580119 321.2128905605 801.7004855544 0 1 0
12098 33 5 1.0 313.3855602643 321.6707162321 802.7581863315 0 0 0
9176 25 2 0.0 316.0016931564 324.4830703331 807.0003700921 0 1 0
9175 25 14 0.0 319.0386299867 322.4710290409 808.0598153273 0 1 0
12651 35 3 1.0 302.9570468353 322.2648605463 808.1600285637 0 1 0
12652 35 15 0.0 302.2083050119 319.6867192202 805.9672451413 0 1 0
12099 33 2 0.0 313.4777381808 324.3707792785 799.9183566492 0 0 0
9174 25 2 0.0 322.0838653171 324.097893196 806.5742225692 0 1 0
12102 33 2 0.0 317.4758111304 330.5985855436 803.1220022938 0 0 0
8993 25 30 0.0 326.4999423089 335.6693752914 804.4183404903 0 1 0
8994 25 28 -1.0 322.703544241 336.0025796848 804.0345781417 0 1 0
12103 33 15 0.0 320.4815186697 328.8182483584 805.3626491352 0 0 0
12101 33 15 0.0 317.3033367607 327.3866806465 801.1940435975 0 0 0
12100 33 5 1.0 316.2034102727 325.4093078435 797.6364258931 0 0 0
9173 25 17 0.0 323.8165247679 322.8181845996 803.3345178701 0 1 0
12105 33 17 0.0 326.7157270635 328.775611112 807.6820688081 0 0 0
12104 33 2 0.0 323.894697544 330.5928343658 806.269527155 0 0 0
8997 25 27 -1.0 323.3485287162 337.0564481615 799.2615085341 0 1 0
9182 25 2 0.0 316.5508150202 323.6353325776 814.8436278899 0 1 0
12165 33 15 0.0 305.1344292371 333.3410516317 809.8261846167 0 0 0
12822 35 37 0.0 307.7217333052 310.4202343639 812.5060459749 0 1 0
12088 33 12 0.0 325.9312667102 314.5371981335 801.0045154366 0 0 0
12087 33 3 1.0 328.5140069063 315.6307178881 803.6127555108 0 0 0
9180 25 2 0.0 312.087117415 325.0620624097 811.0045337862 0 1 0
12095 33 15 0.0 317.3949483297 313.4803029737 802.6213900105 0 0 0
12159 33 2 0.0 306.563744093 336.9139255097 806.1443954082 0 0 0
9181 25 9 0.0 313.058035221 325.0760636191 814.8311461355 0 1 0
9192 25 15 0.0 320.2261582305 331.592722522 815.1204256157 0 1 0
9102 25 37 0.0 339.2950967203 324.475211413 814.3763445956 0 1 0
12043 33 27 -1.0 350.6714560039 316.1669713324 814.7762597612 0 0 0
12044 33 25 1.0 350.9251303675 319.8970475889 814.0974963122 0 0 0
12119 33 17 0.0 334.2498740583 311.6865365211 815.1746238278 0 0 0
12047 33 22 0.0 355.2708060496 315.8180511316 813.9178294377 0 0 0
9049 25 31 0.0 349.9944047171 330.9205611221 815.4635806967 0 1 0
9168 25 15 0.0 329.6082636448 327.3951271843 796.8788912408 0 1 0
9020 25 5 1.0 336.6676107078 329.2390721181 800.0701691578 0 1 0
9027 25 2 0.0 343.6398082454 321.4015062262 797.3336753412 0 1 0
9026 25 18 0.0 342.579782653 319.2354673334 799.8541468923 0 1 0
9024 25 12 0.0 338.1386407051 321.6013209635 802.2298612317 0 1 0
9028 25 6 0.0 347.071507805 322.9217175894 796.6888300819 0 1 0
9029 25 16 0.5 349.9004700727 320.3715553984 796.4002244619 0 1 0
9019 25 35 0.0 338.970375872 331.6800557889 797.6244130679 0 1 0
9018 25 30 0.0 338.5988750266 335.1878289786 796.2383271772 0 1 0
9040 25 40 0.0 340.8042909643 332.0898419632 814.7068364596 0 1 0
12118 33 7 -1.0 337.6826744787 310.6752667403 813.5693373958 0 0 0
12109 33 2 0.0 335.5073959158 319.121201336 812.0452988101 0 0 0
12108 33 2 0.0 333.7024316434 321.679450421 809.5346749559 0 0 0
12110 33 5 1.0 333.1495908631 319.5879291737 815.3579233478 0 0 0
12106 33 14 0.0 330.0503496917 326.9395930705 808.4080077321 0 0 0
12086 33 15 0.0 331.8521660744 316.7361204548 804.2179465566 0 0 0
9021 25 8 -1.0 334.505851088 326.3190843961 801.2851296409 0 1 0
9025 25 5 1.0 338.937477227 319.3583308794 799.0360426419 0 1 0
9023 25 15 0.0 334.7888981087 321.3488179414 804.1970123554 0 1 0
9022 25 7 -1.0 332.1434049397 323.8364153528 802.5867907028 0 1 0
12107 33 2 0.0 330.9756946398 323.4817046531 807.6643589049 0 0 0
12038 33 40 0.0 348.2021891973 310.2877914303 799.7671093292 0 0 0
9032 25 30 0.0 353.7304503644 328.931666215 797.5479183997 0 1 0
9084 25 36 0.5 357.1514480163 325.8528509097 800.2967621747 0 1 0
8940 25 32 0.0 336.3190702453 336.4181809769 803.8322908234 0 1 0
9109 25 31 0.0 348.5822012619 333.8694073608 796.8269782052 0 1 0
9054 25 28 -1.0 356.8128521636 326.9201482319 813.4417180363 0 1 0
9055 25 32 0.0 356.8514730084 323.0882534096 813.7382687804 0 1 0
12037 33 30 0.0 347.3333365398 312.1697119112 796.5780766088 0 0 0
12056 33 24 0.0 342.5414979418 311.1121854195 796.70486466 0 0 0
12010 33 23 1.0 338.6833805744 311.3020375652 798.4627427079 0 0 0
9034 25 23 1.0 352.0597564287 331.6488024395 802.3853236793 0 1 0
9108 25 26 0.0 347.50005921 332.1513768912 800.0121391201 0 1 0
9033 25 23 1.0 355.1743186286 329.9489851407 800.8826924572 0 1 0
12085 33 31 0.0 334.7478758382 315.8948391251 801.8302317528 0 0 0
9088 25 27 -1.0 352.6903927737 321.6046006684 801.4481681755 0 1 0
9087 25 30 0.0 352.9220578085 324.9343011906 803.2879110116 0 1 0
9107 25 23 1.0 347.4494933927 328.3105028347 800.2883656464 0 1 0
12054 33 34 0.0 343.4944704015 310.7511106961 803.2749488379 0 0 0
12040 33 40 0.0 349.4033759089 310.8090165187 806.1287018396 0 0 0
12039 33 28 -1.0 348.2862943497 312.4627806248 802.9187068192 0 0 0
12084 33 26 0.0 336.1300597388 312.5138010156 802.7884927026 0 0 0
9086 25 35 0.0 356.078214313 323.8723326761 805.1168681351 0 1 0
9095 25 29 0.0 342.7411460128 319.4698225211 810.656670106 0 1 0
9094 25 23 1.0 342.7558478823 317.4006150902 807.4457314034 0 1 0
12041 33 21 0.0 348.322455034 313.0164548939 809.0233202753 0 0 0
9093 25 32 0.0 346.4702800209 317.9126689391 806.9517258298 0 1 0
9091 25 30 0.0 347.5853631776 322.027191952 803.6334117372 0 1 0
9090 25 40 0.0 350.2672603006 322.0235229831 806.2857318715 0 1 0
9096 25 36 0.5 344.4953351408 322.4198701925 812.252890624 0 1 0
9092 25 40 0.0 347.5054052373 318.1972845026 803.2998641313 0 1 0
9089 25 23 1.0 352.8561285853 319.6673803569 804.7228692053 0 1 0
9103 25 39 0.0 340.9674564948 326.4665790763 811.6432633373 0 1 0
9104 25 28 -1.0 340.5561867329 326.606366278 807.9111475462 0 1 0
9105 25 30 0.0 343.9857589894 326.7208450063 806.2917198173 0 1 0
12042 33 24 0.0 350.9426080157 314.1554869711 811.5629266428 0 0 0
9075 25 22 0.0 339.3055223501 336.3205539356 812.8343912783 0 1 0
9035 25 40 0.0 348.8884315999 330.4037456598 803.9965551923 0 1 0
9036 25 34 0.0 345.5063320944 331.80224902 804.971340682 0 1 0
9079 25 30 0.0 351.5168718447 333.1018865755 807.7385680801 0 1 0
9080 25 24 0.0 354.523721262 333.2627334493 805.4403155436 0 1 0
8939 25 28 -1.0 334.9188707931 337.314385556 807.2872724153 0 1 0
8941 25 31 0.0 332.9851160351 334.9033210534 803.0115424517 0 1 0
9037 25 30 0.0 344.4303201176 330.7636308531 808.4457652964 0 1 0
8937 25 28 -1.0 330.7948362368 333.1141135228 809.3196206361 0 1 0
9038 25 22 0.0 340.7163822408 331.3445079733 809.1253402005 0 1 0
8935 25 18 0.0 329.5057059673 330.8724306008 815.1162921255 0 1 0
8936 25 23 1.0 330.0767758617 333.9664808021 812.9427720765 0 1 0
8938 25 38 0.0 334.4802394528 333.6985989948 808.2875993955 0 1 0
9106 25 25 1.0 344.753875658 327.0643101163 802.6032924332 0 1 0
9039 25 22 0.0 338.4312825655 330.7707758898 812.0602830893 0 1 0
9056 25 29 0.0 356.1150085665 322.9051126292 810.0600760512 0 1 0
12049 33 23 1.0 351.8593779562 310.3014662919 813.0153601645 0 0 0
9053 25 34 0.0 353.0807704258 326.6590623525 812.681945864 0 1 0
9078 25 34 0.0 348.2966425649 334.9656669294 807.0147654986 0 1 0
12050 33 25 1.0 348.2747613952 310.683386236 814.1394413332 0 0 0
12048 33 23 1.0 354.2029751286 312.3843399969 815.2150887818 0 0 0
9062 25 40 0.0 352.595764528 336.4471254225 810.7550177587 0 1 0
9076 25 34 0.0 341.89197687 335.3491447207 810.2299568337 0 1 0
9077 25 26 0.0 345.6052585673 335.636560968 809.57940764 0 1 0
9110 25 15 0.0 348.7231992356 337.1937598058 798.4595387868 0 1 0
9061 25 30 0.0 355.7543839714 336.7580276015 808.6612385964 0 1 0
14722 40 7 -1.0 357.0222625401 317.1522316659 807.2736397712 0 1 0
9245 25 17 0.0 305.5456395113 345.6366298501 814.4205159991 0 1 0
9387 26 23 1.0 307.0943986876 364.2158521434 800.0097404399 1 0 0
9316 26 31 0.0 311.5677656204 362.4167808483 797.6150231593 1 0 0
9247 25 17 0.0 305.3072915218 352.7112750955 814.223816493 0 1 0
9266 25 15 0.0 326.1012786331 359.9185000207 813.7313352714 0 1 0
9246 25 9 0.0 307.1210352643 348.8893384257 814.4228044231 0 1 0
12158 33 2 0.0 303.9487276653 338.4731527056 803.4923274166 0 0 0
9315 26 23 1.0 314.9235076541 363.8620993724 796.7482117736 1 0 0
8992 25 24 0.0 326.2773369384 337.6985927129 807.6356637564 0 1 0
9265 25 15 0.0 327.3778984998 357.3579474993 810.7204472073 0 1 0
9268 25 18 0.0 321.8356683135 355.1648091404 813.8148063125 0 1 0
8991 25 26 0.0 327.6287652805 340.8886426351 809.1989072805 0 1 0
8996 25 30 0.0 325.9274094316 339.1694130525 801.0504874801 0 1 0
8995 25 28 -1.0 323.2524687412 339.7335073758 803.7420322224 0 1 0
8998 25 26 0.0 320.7047338236 339.8180080001 799.6126981883 0 1 0
9269 25 9 0.0 318.236528814 353.9803141069 814.7562081583 0 1 0
8959 25 25 1.0 328.1539119548 352.3394595523 802.8491733237 0 1 0
8990 25 29 0.0 328.4384960694 342.3596027982 805.8003345125 0 1 0
8999 25 26 0.0 323.1389960141 342.3460985242 798.1729063682 0 1 0
8958 25 31 0.0 329.3306735217 353.1598635777 799.3237771601 0 1 0
8957 25 35 0.0 328.2422533291 356.7429469633 800.0286258035 0 1 0
8968 25 31 0.0 328.0551160734 346.576087121 807.1700831008 0 1 0
8967 25 24 0.0 324.6052300858 345.5598335094 808.4439270846 0 1 0
8961 25 36 0.5 324.1407245544 352.271479037 799.452481292 0 1 0
8960 25 35 0.0 324.8106494849 354.1717387242 802.6172877699 0 1 0
9357 26 34 0.0 309.8282354223 354.2062797697 804.0122128631 1 0 0
9358 26 22 0.0 312.6000125283 355.0860114144 801.6258864792 1 0 0
9346 26 21 0.0 315.1641714013 351.9949740323 804.8186505262 1 0 0
9355 26 25 1.0 311.0482297512 350.3158707222 808.0651713994 1 0 0
9356 26 22 0.0 308.2630196617 351.1701065485 805.6160045372 1 0 0
9319 26 22 0.0 306.4316262498 356.9091962232 803.2594720079 1 0 0
9320 26 22 0.0 303.8918712617 354.1815727123 803.6674857428 1 0 0
9344 26 30 0.0 316.8686933319 353.2940661739 798.9140223354 1 0 0
9359 26 34 0.0 313.8457519542 357.8255942763 799.3763472164 1 0 0
9345 26 30 0.0 314.3999860972 351.438890111 801.0975926789 1 0 0
9318 26 40 0.0 308.4865710921 357.8786486102 800.2128182838 1 0 0
9321 26 31 0.0 305.8136194327 351.5818993613 801.6676983787 1 0 0
9384 26 30 0.0 302.6442265516 355.4466195968 799.2018523675 1 0 0
9322 26 35 0.0 304.8757319746 348.0306010459 801.376587079 1 0 0
9327 26 27 -1.0 315.3950180977 349.2188604622 796.288571302 1 0 0
9325 26 24 0.0 309.1741526628 346.9846211982 798.4498774427 1 0 0
9347 26 25 1.0 315.6142481162 348.7925304008 806.7037913043 1 0 0
9326 26 24 0.0 312.920831304 346.7469117526 797.689186148 1 0 0
8962 25 34 0.0 325.0543261437 348.7984123241 800.5578583442 0 1 0
8963 25 28 -1.0 323.4758278684 349.1402288917 804.0393512532 0 1 0
8966 25 22 0.0 322.3950746585 344.4378373131 805.6271863521 0 1 0
9351 26 24 0.0 316.7024784727 342.2394441318 810.9584880153 1 0 0
9354 26 35 0.0 311.7367890845 347.2303172079 805.9321875051 1 0 0
9348 26 27 -1.0 316.407238068 347.6894660378 810.2277918532 1 0 0
8964 25 32 0.0 320.134756455 348.7233671871 802.2951236763 0 1 0
8965 25 33 0.0 320.8454967785 344.9665757155 802.2372622166 0 1 0
9349 26 38 0.0 320.1742878144 347.3007267432 810.6199396843 1 0 0
9350 26 37 0.0 319.8327923537 343.9214090477 812.3089881269 1 0 0
9353 26 25 1.0 313.0107443493 344.1372878507 807.7167715924 1 0 0
9352 26 23 1.0 316.802273678 343.7884017005 807.4245144977 1 0 0
9323 26 34 0.0 307.3981104118 346.0705029067 803.5552991865 1 0 0
9324 26 28 -1.0 307.8745967264 343.9294307859 800.3200293354 1 0 0
9317 26 34 0.0 310.8715722952 360.7085187069 800.919618639 1 0 0
9385 26 28 -1.0 303.247814644 358.9963422784 800.4130623863 1 0 0
9386 26 38 0.0 305.9620983793 360.9156881818 798.5229964758 1 0 0
13021 36 1 0.0 342.9582603244 361.7942535066 812.0162100917 1 2 0
14754 40 2 0.0 347.3277214301 348.3212672589 801.7763576817 0 1 0
9071 25 22 0.0 341.0092090172 347.9616115121 814.4738073785 0 1 0
8969 25 24 0.0 330.9329863455 345.9035665335 809.4883228907 0 1 0
9263 25 2 0.0 331.3205261975 353.777246076 810.1964218363 0 1 0
9073 25 23 1.0 340.4862822484 341.4439969002 814.8897893392 0 1 0
13023 36 3 1.0 338.6892927016 360.1653469623 805.6888484466 1 2 0
14763 40 2 0.0 348.2298544599 356.5395316079 812.0841134056 0 1 0
9070 25 35 0.0 337.7286337739 349.9042014096 813.904283214 0 1 0
14765 40 2 0.0 349.4906445771 364.374610344 812.6309681847 0 1 0
9262 25 2 0.0 334.3434222778 353.4963575741 812.8323543246 0 1 0
9016 25 25 1.0 332.6224543694 337.7108185927 796.4306369247 0 1 0
9017 25 26 0.0 336.2308722583 337.86121967 797.6561371277 0 1 0
9114 25 1 0.0 341.7936807428 341.7566316911 797.7935953153 0 1 0
9113 25 8 -1.0 341.7360216763 340.3229835486 801.2611255294 0 1 0
8986 25 22 0.0 336.4269967043 349.0392594417 797.0850968203 0 1 0
8974 25 21 0.0 340.5531201676 352.051172053 797.58377068 0 1 0
8973 25 30 0.0 336.9731085825 352.7305286559 798.7913600422 0 1 0
8975 25 25 1.0 342.4837464882 355.1899462309 796.9189382173 0 1 0
8977 25 38 0.0 348.2057288773 356.6075325348 798.8207573771 0 1 0
8980 25 23 1.0 343.8290452843 360.1827469789 797.4239076478 0 1 0
8978 25 37 0.0 349.5705100314 359.9182205823 797.567559902 0 1 0
9111 25 3 1.0 347.7808361714 339.9537595453 801.0311907544 0 1 0
9074 25 25 1.0 338.7173025611 339.9957262413 811.884421557 0 1 0
9067 25 27 -1.0 339.2878476957 345.8608781002 810.6476436935 0 1 0
9065 25 21 0.0 343.9892845894 340.7515902535 810.0879069969 0 1 0
14748 40 15 0.0 356.8698633327 352.6160824333 806.2872205819 0 1 0
13022 36 15 0.0 340.6665629872 361.758605321 808.6175933598 1 2 0
8942 25 25 1.0 331.1908408169 338.1183415583 804.0623329944 0 1 0
14756 40 2 0.0 345.4167624474 354.1187615078 805.793312915 0 1 0
14751 40 2 0.0 354.4550544368 344.349283296 805.4060393296 0 1 0
14752 40 9 0.0 350.7294919582 343.9931366077 805.926072923 0 1 0
8970 25 27 -1.0 333.4396753589 347.4531822018 807.0325472994 0 1 0
13024 36 15 0.0 338.5707164391 363.9658079583 804.8545921563 1 2 0
9066 25 24 0.0 342.2028537022 343.6905477312 811.7561998572 0 1 0
9064 25 40 0.0 346.7342893497 338.9479050726 811.9917593931 0 1 0
9112 25 12 0.0 344.7780667661 339.0527346805 803.086679563 0 1 0
8944 25 31 0.0 332.2688954037 341.8431472163 798.4511964359 0 1 0
8987 25 34 0.0 335.0531865016 346.4019473385 799.3815296698 0 1 0
8954 25 24 0.0 333.401075853 357.5210312508 799.0972140813 0 1 0
14749 40 2 0.0 354.8426980708 349.7497132375 804.5918692344 0 1 0
14760 40 2 0.0 343.2572312087 354.9090523014 815.5532112398 0 1 0
14753 40 17 0.0 347.8253269598 344.7187995254 803.2157295401 0 1 0
9068 25 25 1.0 340.4754265608 348.834246615 808.5983714982 0 1 0
8943 25 23 1.0 333.1875405556 340.4809786874 801.8263260061 0 1 0
8988 25 30 0.0 332.1589547382 346.022338229 801.7863837576 0 1 0
14750 40 7 -1.0 355.8208869632 346.3884775684 802.6864246074 0 1 0
8955 25 27 -1.0 333.3879017465 355.1389290158 802.0144101288 0 1 0
14757 40 17 0.0 343.6123112105 356.8097640038 807.4669701353 0 1 0
8972 25 30 0.0 336.2975749503 350.9931752677 802.0811062094 0 1 0
8956 25 28 -1.0 330.2189044824 356.9131461808 803.2440071892 0 1 0
14761 40 9 0.0 344.9897672835 352.0017866208 814.7673869423 0 1 0
14762 40 2 0.0 348.2315772078 354.332537529 815.3364515383 0 1 0
14758 40 7 -1.0 341.5790776303 354.8414137889 810.0984118096 0 1 0
14759 40 2 0.0 339.9036652077 355.5026597038 813.5394641026 0 1 0
8971 25 39 0.0 333.2709720379 349.5521577146 803.9166591812 0 1 0
9063 25 28 -1.0 349.8336689062 338.9330095632 809.8305032862 0 1 0
14755 40 14 0.0 346.2427874337 350.9583393656 804.1683950818 0 1 0
8989 25 24 0.0 331.8482387395 343.4579602225 804.5247786598 0 1 0
9069 25 22 0.0 337.977353728 351.1681424144 810.3463317796 0 1 0
9264 25 5 1.0 331.1382520795 357.7022564798 810.0311457964 0 1 0
14764 40 2 0.0 349.5025724109 360.321850666 811.9949106043 0 1 0
13030 36 38 0.0 334.537878721 364.2040563586 814.5978755118 1 2 0
12932 35 15 0.0 313.8244536655 385.4361073039 775.7018676224 0 0 0
12912 35 15 0.0 312.1057641742 401.8322643072 775.3788452919 0 0 0
12930 35 2 0.0 314.5369749135 390.1101262163 771.90287132 0 0 0
12913 35 5 1.0 314.7244027235 404.2556955409 773.6562360223 0 0 0
12929 35 9 0.0 312.6346193068 393.7031626542 772.0607009786 0 0 0
12931 35 2 0.0 315.4552902135 386.3203052987 772.1147084727 0 0 0
12928 35 2 0.0 314.9815579071 396.7567538315 772.4991820537 0 0 0
12927 35 15 0.0 314.9927067068 397.6308043858 776.1231126739 0 0 0
12911 35 2 0.0 309.5964162196 399.1388810115 776.2650816774 0 0 0
11923 33 22 0.0 302.8915975593 414.8035324712 774.8790135996 0 -1 0
12693 35 30 0.0 304.3951183122 426.2841563355 774.1144502981 0 0 0
12914 35 2 0.0 315.2081974247 407.2333245528 776.1154679677 0 0 0
12701 35 25 1.0 306.6770493205 421.4118433247 765.736863862 0 0 0
12702 35 35 0.0 304.3288340075 423.6652871561 767.6850218131 0 0 0
12915 35 9 0.0 314.2524144585 410.9378127059 775.9594273923 0 0 0
12700 35 23 1.0 309.082605035 419.5377884577 768.0360371425 0 0 0
12917 35 15 0.0 320.4836468884 413.0585506097 774.7041706688 0 0 0
12916 35 2 0.0 316.7981061509 413.9574729226 776.2996312892 0 0 0
11994 33 30 0.0 313.4945463769 423.1884640086 773.6994572307 0 -1 0
12697 35 38 0.0 307.0346459744 415.0766477487 771.1675980429 0 0 0
12699 35 24 0.0 308.8701404706 416.6262030267 765.5094624632 0 0 0
12698 35 37 0.0 308.7692674498 413.7958192915 768.0452182513 0 0 0
11989 33 28 -1.0 305.8329442207 411.4974846131 776.6197884936 0 -1 0
12696 35 27 -1.0 304.8695097628 417.5065071113 769.1906535095 0 0 0
12695 35 25 1.0 304.9365845565 420.8977103619 770.8541625765 0 0 0
12694 35 21 0.0 302.9850899627 422.7784173337 773.438408735 0 0 0
11995 33 35 0.0 316.8112524036 425.0218811912 773.8022762388 0 -1 0