LAMMPS data file via write_data, version 23 Jun 2022, timestep = 1000

18336 atoms
45 atom types
18240 bonds
1 bond types

165 344 xlo xhi
125 304 ylo yhi
500 1500 zlo zhi

Masses

1 131.2
2 57.05
3 128.2
4 101.1
5 156.2
6 71.08
7 115.1
8 129.1
9 163.2
10 99.06999999999999
11 113.2
12 128.1
13 186.2
14 147.2
15 87.08
16 137.1
17 114.1
18 97.12
19 103.1
20 113.2
21 131.2
22 57.05
23 128.2
24 101.1
25 156.2
26 71.08
27 115.1
28 129.1
29 163.2
30 99.06999999999999
31 113.2
32 128.1
33 186.2
34 147.2
35 87.08
36 137.1
37 114.1
38 97.12
39 103.1
40 113.2
41 100
42 100
43 100
44 100
45 87.08

Atoms # full

7122 76 23 1 188.77429886073642 223.16822929995834 793.3723192274585 0 0 0
7085 76 28 -1 181.4226110552918 234.32352378065315 788.3981391763499 0 0 0
7084 73 8 -1 178.5046552877821 236.54909824177892 788.9656059254405 0 0 0
7081 73 45 0 170.2830815081799 233.63161493647684 791.5561832456951 0 0 0
7082 73 8 -1 173.8768678732531 235.34683580832288 791.9644115466081 0 0 0
7083 73 7 -1 175.03682242388643 237.72733598547958 789.1362401215677 0 0 0
7080 73 45 0 167.24423216306167 232.5534075487227 793.963291778161 0 0 0
7123 76 37 0 187.07800230461484 226.61588014991833 792.9475235168411 0 0 0
7086 76 28 -1 185.11125694822863 234.45541856675132 789.3388401284445 0 0 0
7087 76 29 0 185.13188110949807 237.31944689595048 791.9378322879893 0 0 0
7125 76 27 -1 192.52486956092213 230.61183486618305 793.5189951441818 0 0 0
6954 73 17 0 165.54489921077933 198.85107831941275 811.2788187577215 0 0 0
6953 73 8 -1 168.75647405005623 196.7516798562918 810.2314034634971 0 0 0
6952 73 2 0 167.8791278295474 194.1370468420095 813.1715780105561 0 0 0
7099 76 23 1 180.6809750002288 214.30080081615043 800.7897520792076 0 0 0
7098 76 30 0 181.4053511269184 217.25415520492675 803.171349613668 0 0 0
7100 76 22 0 184.37484090894895 213.6128413480248 800.0993124565226 0 0 0
7120 76 38 0 184.8274782299979 223.59443842493133 797.1607626053128 0 0 0
7103 76 28 -1 184.83415870252523 223.44201492078432 801.2256658789987 0 0 0
7097 76 30 0 184.6508316172183 218.501633190413 804.7321343282564 0 0 0
7096 76 25 1 184.6018706345727 222.04076670335698 806.3224448643838 0 0 0
7101 76 32 0 185.31220144690238 217.2766163714436 799.3671545425544 0 0 0
7121 76 28 -1 188.63711783990854 223.6475163615102 797.1603491250357 0 0 0
7102 76 30 0 186.9284543266283 220.19190514635991 801.2956815442432 0 0 0
7119 76 28 -1 182.80500403027108 226.7753658913676 798.0639010611274 0 0 0
7079 73 45 0 167.62166033629214 228.7642215843342 795.327055029683 0 0 0
7118 76 33 0 180.4306760146093 227.78355738509703 800.9062693507284 0 0 0
7078 73 45 0 169.1901575438311 228.68263938212323 798.7250387038856 0 0 0
7077 73 7 -1 172.43235805207732 228.59515074943417 799.8137292989027 0 0 0
7117 76 24 0 179.26377871044298 231.4166057228614 800.2831004648945 0 0 0
7108 76 33 0 183.89497749498284 238.30695935854772 798.9157345535375 0 0 0
7106 76 31 0 184.48194504141753 232.9278719274325 801.6572989081611 0 0 0
7105 76 31 0 183.42701830721165 229.86109687865837 803.6918633324419 0 0 0
7111 76 34 0 180.27040002026655 242.56343269832576 799.2435975614137 0 0 0
7116 76 37 0 179.02070210783984 234.70132095589912 802.3310862661098 0 0 0
7115 76 36 0.5 176.79812157530515 237.2970576997968 800.5859021077815 0 0 0
7107 76 23 1 184.02922943350555 236.71602042351438 802.3725368491218 0 0 0
7112 76 35 0 178.47717786134314 242.26408449313115 802.5972953669873 0 0 0
7114 76 28 -1 175.08864244167245 237.8143852805821 803.9715273235181 0 0 0
7113 76 28 -1 178.5253881020423 239.1848457099257 804.8782084047474 0 0 0
7074 73 5 1 173.34533278231243 231.1037133543516 809.5804432572983 0 0 0
7075 73 4 0 174.78115964648518 230.52953014623643 806.0250650318916 0 0 0
7076 73 6 0 173.8835102638284 231.16205998746977 802.1004553933208 0 0 0
9392 100 22 0 184.171938155446 235.65803707497042 812.4458212613723 0 0 0
7073 73 3 1 175.12146310318852 229.65151103140408 812.5284558858541 0 0 0
7088 76 30 0 187.858061389288 238.67723256279115 794.2371442206605 0 0 0
7109 76 23 1 185.70246410938992 241.66050279384837 798.4269388612572 0 0 0
7095 76 25 1 186.40064983501856 225.42756221439117 806.6594685208948 0 0 0
7104 76 29 0 185.7246505627513 226.99632308237008 802.4685519236124 0 0 0
7094 76 27 -1 185.20505227472958 228.92022511281635 807.8608505168479 0 0 0
7134 76 21 0 195.3013481639866 227.90847585933705 808.4454708537946 0 0 0
7135 76 23 1 196.9065807606753 230.19288543429883 811.0833624903632 0 0 0
7124 76 31 0 189.67396399189934 228.54942259994792 794.9837067986999 0 0 0
7089 76 30 0 188.08241254318102 237.12989691731966 797.7089278357837 0 0 0
7090 76 28 -1 188.59862345364184 239.16658465604345 800.9297789009944 0 0 0
7093 76 31 0 186.74760359328047 232.30651876533028 806.9088685907444 0 0 0
7131 76 35 0 197.26220616556958 230.0099936618346 804.3854704975722 0 0 0
7130 76 40 0 193.8016807095497 229.75189848880788 802.8219292093484 0 0 0
7127 76 38 0 196.263832866353 230.12085391709437 798.3063018610775 0 0 0
7126 76 39 0 193.5079217894161 232.31916256637663 796.8096525362015 0 0 0
7128 76 28 -1 197.5565398815016 232.9690120926049 800.5579799424875 0 0 0
7129 76 31 0 194.0968850928261 233.52853382736933 802.084450714109 0 0 0
7092 76 30 0 188.86733426518705 232.68639263349107 803.7611668430131 0 0 0
7091 76 23 1 189.03947632133094 236.55169886264216 803.6812562274649 0 0 0
7133 76 34 0 193.15856727848606 231.01913344879932 807.673514074307 0 0 0
7132 76 28 -1 196.18179085513177 233.04580411624084 806.5396668210216 0 0 0
7136 76 23 1 194.1037480403739 232.66848100361008 812.0392342554132 0 0 0
7137 76 29 0 192.34581168498934 229.51069846822259 813.303039856321 0 0 0
9772 104 30 0 208.85378432192175 228.64604929322283 809.5500444212438 0 0 0
9773 104 23 1 207.28241001190034 229.62199539049098 806.1603432546331 0 0 0
9771 104 30 0 212.46349152262133 227.93432212814366 810.5493924720006 0 0 0
9774 104 22 0 210.65825427875535 230.24888340334707 804.48387396864 0 0 0
9775 104 32 0 212.09447089431916 232.42225353576737 807.3221119854295 0 0 0
9776 104 30 0 214.46025524775547 231.9104701255299 810.3172292211361 0 0 0
9796 104 23 1 215.58807808949112 240.47491351119436 809.6875417109088 0 0 0
9795 104 28 -1 216.10325208068934 237.1785677974114 811.5462283169575 0 0 0
9794 104 38 0 212.38358024169025 236.88605159788634 812.3238128592138 0 0 0
9777 104 28 -1 212.97116701928658 233.09857142915848 813.6824481470683 0 0 0
9797 104 37 0 214.46773572246425 242.0941363083842 813.0143269047848 0 0 0
10905 116 28 -1 296.6164863755754 232.75016125698482 811.7819079954236 0 0 0
10906 116 28 -1 299.00192550893877 235.7185859360551 811.9329225524107 0 0 0
7110 76 22 0 183.32250475811188 244.7026617277739 798.4345686836776 0 0 0
249 4 27 -1 165.6717312527773 142.90367429403148 828.566603731718 0 0 0
251 4 38 0 171.68406577667736 143.89603651889269 828.4549792834085 0 0 0
246 4 23 1 165.15757866259702 135.1879883837577 831.6866223993447 0 0 0
248 4 31 0 165.627948611877 140.857439373861 831.782195796213 0 0 0
254 4 40 0 173.8151253502954 144.1812085551935 833.1393495694082 0 0 0
3263 33 7 -1 224.57645205353194 135.82656162479316 824.3253495861334 0 0 0
2898 32 22 0 212.82639975220155 137.26391439447278 833.2345957999405 0 0 0
2899 32 32 0 211.23326484525933 140.68817868050238 832.4789021173656 0 0 0
3262 33 8 -1 222.52922754249198 135.85315510623153 827.3062191862961 0 0 0
3261 33 45 0 221.76673111584896 139.57357971505328 828.3661219621789 0 0 0
3260 33 45 0 220.087185539751 141.03465742785733 831.1380194002594 0 0 0
2900 32 30 0 212.2696726872504 144.38526040469065 832.7767945381673 0 0 0
3264 33 8 -1 226.8191300891198 135.92052763273782 821.2433461352291 0 0 0
3266 36 28 -1 231.4881271106347 139.98581918319312 821.145678673955 0 0 0
3303 36 37 0 240.30410126931307 139.24074002339242 820.9297297779312 0 0 0
3302 36 23 1 243.89893442494068 139.3895212182826 819.517829403205 0 0 0
3300 36 38 0 244.10170184252388 136.92385708749794 824.4150957898196 0 0 0
3304 36 31 0 240.3334439480744 142.787890313449 822.3616461873811 0 0 0
3265 36 28 -1 230.11259005302784 136.47003152403948 821.6688234967908 0 0 0
3299 36 28 -1 241.2348053902531 136.66925838631042 827.0096541095993 0 0 0
3284 36 29 0 243.86935013084343 140.3092081333407 829.8013796502044 0 0 0
3267 36 29 0 230.24056731807107 141.77507646240437 824.3376122125169 0 0 0
3297 36 24 0 237.28641285546806 135.97634728962873 831.7963471632056 0 0 0
3298 36 33 0 240.97432696676907 135.62459808058316 830.6927534056429 0 0 0
3285 36 31 0 241.33415517314378 139.75053796744962 832.671054788401 0 0 0
3286 36 31 0 238.13200804397192 141.51322247015227 831.5335803204026 0 0 0
3290 36 22 0 226.39569369700436 144.70022394434034 833.0875593461329 0 0 0
3288 36 33 0 232.1837107750267 142.63825429109713 831.1665720892304 0 0 0
3301 36 28 -1 245.1559795527975 140.30553682148886 823.0061291950207 0 0 0
3283 36 28 -1 246.05866902237423 137.7638688354374 827.8794268391946 0 0 0
3281 36 32 0 250.5736309309332 135.19810964745548 824.0456785296193 0 0 0
3282 36 30 0 249.44197098401895 138.26783265812287 826.0771021349483 0 0 0
3279 36 23 1 252.39195497597495 130.18446214472098 826.0226730988944 0 0 0
3280 36 22 0 253.7292664517703 133.0019199593201 823.8139733974657 0 0 0
3278 36 30 0 251.17429568827055 132.5836508906305 828.7926768690019 0 0 0
3277 36 30 0 251.75746090561339 136.31184514018193 829.3423238713142 0 0 0
3276 36 25 1 249.4659586187548 138.09910835563696 831.9115778867541 0 0 0
3275 36 25 1 247.27338359823415 141.17534198786697 832.654029056837 0 0 0
4043 44 23 1 304.61026852669403 140.57917721286034 832.3285413299803 0 0 0
4044 44 22 0 305.8835641155274 142.70139490081795 829.416548093594 0 0 0
2118 21 8 -1 319.2690770881692 130.8840697020913 825.913959870937 0 0 0
2117 21 7 -1 319.76343572020136 130.20266160456802 829.4609826502056 0 0 0
2104 21 3 1 310.19354438064045 128.77878626831756 831.1246501427441 0 0 0
2103 21 2 0 310.1862830910027 127.27615558988361 828.0061438812128 0 0 0
2119 24 28 -1 320.4367275075794 128.40977422987527 823.2107224741609 0 0 0
2146 24 35 0 336.2515767485817 131.636173748559 823.5116189827066 0 0 0
2144 24 22 0 333.72485257497055 128.07167668734849 818.542807036088 0 0 0
2145 24 34 0 333.50852737534103 130.25890055232216 821.248172563597 0 0 0
2150 24 37 0 332.6289063837158 129.0484259521628 829.6539021713188 0 0 0
2147 24 28 -1 336.89266329748347 130.5642689828812 827.134270000074 0 0 0
2149 24 36 0.5 332.11722506766534 132.0292001618629 827.2920889737795 0 0 0
2148 24 28 -1 335.26274434219846 133.54917887257864 828.8537135917597 0 0 0
2151 24 24 0 329.33620364800294 128.06671060616512 831.4517367362394 0 0 0
2121 24 29 0 325.1606478388504 125.40943406254438 821.2188418696957 0 0 0
2143 24 23 1 332.7199578066735 125.64540709925379 820.6204067482203 0 0 0
2142 24 33 0 331.74358960910456 126.32947644315159 823.8626194426407 0 0 0
2141 24 23 1 334.10888112846277 125.49528469900085 826.7269985057284 0 0 0
247 4 37 0 341.9986906205947 138.232688495492 832.6938849289864 -1 0 0
250 4 39 0 168.37741669395015 145.37252756663798 829.7030018611787 0 0 0
252 4 28 -1 173.49297249779175 147.29167452002747 828.6897817378469 0 0 0
2517 28 32 0 184.58950766732332 157.8564176707398 829.8622665306217 0 0 0
2536 28 38 0 178.69433228036044 159.99900819232218 832.241439599582 0 0 0
2518 28 30 0 184.36394531045244 159.78227389136896 833.1898273037982 0 0 0
2499 25 7 -1 165.2303913624025 157.5405832084901 832.3754482876973 0 0 0
2501 28 28 -1 171.2876860351867 161.2810467283818 832.9704649525505 0 0 0
2539 28 37 0 175.34541220930504 163.79641425816294 831.1723190483191 0 0 0
2537 28 28 -1 180.2135797877019 163.4941838450983 832.2204057902185 0 0 0
2538 28 23 1 178.6864239361777 164.13072355304723 829.2567362613984 0 0 0
255 4 35 0 176.99264892653636 145.1887257983518 831.2993513578351 0 0 0
253 4 31 0 172.50469595422737 147.7261642772789 832.3566673552726 0 0 0
2514 28 30 0 185.259301234547 153.3237358382193 832.8168862233828 0 0 0
2515 28 23 1 185.60768991760193 152.31407452410446 829.1051053102411 0 0 0
2516 28 22 0 187.18662243588955 155.6394493869733 828.0809965575029 0 0 0
2886 32 30 0 199.74494849047656 159.43519576182774 829.7908880041371 0 0 0
2887 32 30 0 203.06666335254545 159.04663365038152 831.6097078478153 0 0 0
2884 32 28 -1 196.48413396917508 153.379461986566 828.3559101530558 0 0 0
2885 32 29 0 197.1860066565175 156.6486838736312 830.2981594636667 0 0 0
2883 32 28 -1 193.8899627190823 151.71682951371324 830.597795916367 0 0 0
2921 32 37 0 203.50166414271868 147.98872501332136 828.1856360408906 0 0 0
2923 32 27 -1 205.12011535488122 153.6398981582019 824.8050667462078 0 0 0
2924 32 39 0 207.3314140555444 156.39191026916464 826.3031811989515 0 0 0
2925 32 38 0 210.82618977737587 155.7825511614745 824.858038980212 0 0 0
2926 32 28 -1 211.956117953034 159.39165106658123 825.599861750553 0 0 0
2927 32 31 0 210.99960842856174 159.08549662198166 829.2885492628515 0 0 0
2929 32 35 0 215.86194879233244 157.6479688131185 827.8774047962921 0 0 0
2930 32 28 -1 215.57962459216233 160.56694464936484 830.4107790913692 0 0 0
2928 32 40 0 212.9857882554619 155.78663832274006 829.5390779332614 0 0 0
2933 32 23 1 220.50726676378326 159.46636845294796 832.3624168861905 0 0 0
2920 32 23 1 206.17731408601793 145.6010419157082 826.742446261485 0 0 0
2922 32 31 0 205.55417442024657 151.17664387921675 827.6810866938755 0 0 0
2919 32 28 -1 208.679027359379 146.98937381322054 829.2732779796828 0 0 0
2918 32 38 0 206.67728469721996 145.60501708863464 832.2063080182082 0 0 0
2931 32 34 0 215.66430559464558 157.98743933629777 833.2169322574001 0 0 0
2932 32 21 0 218.68885339348654 156.15122989133144 831.6855743781559 0 0 0
3305 36 27 -1 238.75461149051395 145.84047590443333 820.7115135842115 0 0 0
3307 36 38 0 242.3993363626946 149.98991530452957 823.2913019716862 0 0 0
3306 36 39 0 239.0733368125497 148.14779048969078 823.757686614948 0 0 0
3308 36 28 -1 241.3762393029254 152.81763254976994 825.7011968059148 0 0 0
3310 36 40 0 244.0294197292236 148.6618033624622 827.9980404261449 0 0 0
3268 36 30 0 230.9124193142938 145.25454180309964 825.7573475285998 0 0 0
3289 36 23 1 229.65075300789687 145.52586803030397 831.1801303062257 0 0 0
3269 36 30 0 233.8449347481045 145.57250095156718 828.1639162727186 0 0 0
3270 36 28 -1 233.7191575357093 147.5903626263659 831.4337875445643 0 0 0
3271 36 23 1 237.29300654450648 147.49396749584753 832.7816414970674 0 0 0
3309 36 31 0 240.590682037914 150.33769303895477 828.503011329429 0 0 0
3312 36 28 -1 243.6019324377594 152.9585761821671 831.4174103392877 0 0 0
3272 36 30 0 240.5467973379163 145.7443033058222 831.6321609280335 0 0 0
5939 64 28 -1 243.1390984577532 162.31790208329082 832.3567984479831 0 0 0
5952 64 30 0 260.6420784254969 160.47604159248348 818.2174258193052 0 0 0
5953 64 23 1 258.7872359740945 159.53692126337248 814.9630312465413 0 0 0
5950 64 25 1 263.0228685128078 164.0268911477218 823.1965673267985 0 0 0
5951 64 30 0 262.07590336835347 163.78985262795283 819.4416729376785 0 0 0
5954 64 22 0 258.35906777045955 163.16855262956608 813.8551740408753 0 0 0
5957 64 28 -1 257.7732197950514 164.48528985453373 823.6543567596837 0 0 0
5973 64 28 -1 254.01058567503182 162.825796357039 826.5383117673249 0 0 0
5972 64 33 0 256.54697923604897 160.49454939316075 828.2275593372552 0 0 0
5959 64 31 0 259.03245361537597 163.61028236751423 830.5024143687255 0 0 0
5955 64 32 0 257.03463119036104 164.44545752243124 817.2404157748858 0 0 0
5974 64 38 0 253.74750209871075 164.57311988966234 823.0891261929386 0 0 0
3311 36 35 0 245.51226003123756 152.16673360765287 828.141143688105 0 0 0
3313 36 34 0 244.95218210140465 149.69588873691185 832.8576160424074 0 0 0
3314 36 21 0 248.54694045828117 150.45593377622774 831.6908317051001 0 0 0
5971 64 24 0 255.26027541905182 159.67039573392572 831.7793879072487 0 0 0
4029 44 28 -1 284.2518401163976 152.40545791487472 832.8942473964536 0 0 0
4045 44 32 0 303.5644080153325 145.70172206193413 830.0892310273047 0 0 0
4030 44 28 -1 286.22259981044544 155.33682019190272 831.4621084627978 0 0 0
4067 44 37 0 294.1333271524713 152.1481273559458 829.1053631045794 0 0 0
4064 44 38 0 298.1041914627169 149.18877760055685 831.8259107888032 0 0 0
4066 44 23 1 297.0814528597609 151.16126579157643 826.8093988433405 0 0 0
4065 44 28 -1 299.48624247995906 152.00152647166 829.6553625538824 0 0 0
4068 44 31 0 295.4383279986493 155.66097268807596 829.876644349875 0 0 0
4069 44 27 -1 294.234648344792 158.87105169219342 828.2098701051168 0 0 0
4070 44 39 0 295.9791770834628 161.26330447090763 830.6476823176288 0 0 0
4071 44 38 0 299.3652846630476 162.05585728630774 829.042258224185 0 0 0
4074 44 40 0 301.92798982189953 160.756184255684 833.3217981957312 0 0 0
4046 44 30 0 303.8552562677184 149.13565461893694 831.8094080090942 0 0 0
4075 44 35 0 304.1902314595799 163.70735845043814 832.4980889294063 0 0 0
4808 52 22 0 335.0250986013063 164.03366969473507 822.5441071288337 -1 0 0
4807 52 23 1 335.19403985382775 161.21010406738554 824.7224643549441 -1 0 0
4806 52 30 0 337.5189856289512 162.8217638512574 827.3521054100329 -1 0 0
210 4 28 -1 337.9289508644625 144.93212917217116 832.3644027789792 -1 0 0
212 4 30 0 340.5332585006315 150.29931079883985 832.5070085505204 -1 0 0
5215 56 27 -1 204.750346984604 179.3687203240616 823.77923446569 0 0 0
5176 56 28 -1 196.53916027423583 175.78387957664262 826.4186385439098 0 0 0
5178 56 30 0 196.78169378150486 182.75080255603984 827.2970656060206 0 0 0
5175 56 28 -1 194.53798363238803 173.3810953709352 828.5961478092481 0 0 0
5177 56 29 0 195.53785673800056 179.198308405461 827.9325924523296 0 0 0
5179 56 30 0 199.6489658398719 183.9669089298068 829.4866131590716 0 0 0
5174 53 8 -1 190.92572029814448 174.02675737143326 828.8260148209498 0 0 0
5171 53 45 0 186.03981828321395 182.52443536299998 830.0540118473156 0 0 0
5172 53 8 -1 188.97144719159937 180.01457919977713 829.1628437672723 0 0 0
5173 53 7 -1 188.08059821797863 175.9626410750197 829.4404134047376 0 0 0
5214 56 31 0 205.7029185746248 177.58278196626264 827.0091904992628 0 0 0
5213 56 37 0 205.0789446966457 173.88276795491382 827.752147839902 0 0 0
5216 56 39 0 205.38661646076292 182.91776830594614 825.0865284424169 0 0 0
5212 56 23 1 208.68282478892883 172.73804738116297 826.9518285677723 0 0 0
5217 56 38 0 209.00234510265327 183.7233388283535 824.1131716680991 0 0 0
5211 56 28 -1 209.97770086367564 175.27080309523203 829.5017747154175 0 0 0
5210 56 38 0 208.28962195191338 173.43028584090555 832.3807724143364 0 0 0
5558 60 28 -1 221.2650349216004 183.28823767901508 832.0394649953652 0 0 0
5592 60 38 0 233.37641398422926 180.31888358141944 827.1764563079987 0 0 0
5595 60 37 0 228.00101674681142 181.90750016669995 826.4669580486963 0 0 0
5573 60 32 0 238.32312712948323 178.1148973924133 823.2170945403428 0 0 0
5594 60 23 1 229.86503930208056 181.43682016735335 823.1135520979956 0 0 0
5575 60 28 -1 236.96239749831318 181.89282765971515 828.2721576326447 0 0 0
5572 60 22 0 240.85686201980963 175.7217314272027 821.5776489365097 0 0 0
5571 60 23 1 241.53468449919282 173.67289852973408 824.7308811767329 0 0 0
5593 60 28 -1 232.91860345144926 183.1383893197079 824.6525837747189 0 0 0
5574 60 30 0 238.37803572334633 181.6775270719458 824.6803206830069 0 0 0
5570 60 30 0 242.06340175690627 176.78721119801335 826.9533592754561 0 0 0
5569 60 30 0 242.4331804700782 180.4814651104997 826.0812904689293 0 0 0
5568 60 25 1 242.07881917097203 183.0280586408533 828.9865702919703 0 0 0
5591 60 28 -1 232.82733835628974 180.94454887413715 830.9612421009217 0 0 0
5940 64 28 -1 244.17276971992186 165.98543838900463 832.3404584795422 0 0 0
5948 64 27 -1 263.36075099740685 165.21418305369934 830.1632524896372 0 0 0
5958 64 29 0 258.40916645270437 165.666423252124 827.2837341413258 0 0 0
5949 64 25 1 262.8290972910698 166.11579108957935 826.4256253840456 0 0 0
5956 64 30 0 258.48209477224356 166.2786054518666 820.3025033244342 0 0 0
5975 64 28 -1 253.87334354164065 168.37282392696454 822.8196766973545 0 0 0
5976 64 23 1 250.2350405508363 168.54179715710248 821.6714922918873 0 0 0
5977 64 37 0 249.15692340524663 167.169715359528 825.1210703432538 0 0 0
5978 64 31 0 250.9159611314063 169.88859684622008 827.1566150264246 0 0 0
5981 64 38 0 254.14558502552532 176.52791694067164 828.7264117448402 0 0 0
5984 64 40 0 258.5645909428557 173.95240176476665 829.366898609649 0 0 0
5985 64 35 0 260.1809268031245 177.3916345277075 829.6031720705867 0 0 0
5979 64 27 -1 249.21754219031598 172.94259739409065 828.6810009432018 0 0 0
5960 64 31 0 256.53479765712234 164.9766473044833 833.0630647548753 0 0 0
5947 64 31 0 261.8898606335349 167.0734256203159 833.1866174661004 0 0 0
5980 64 39 0 252.19270332123727 174.00956553363434 830.8515204406917 0 0 0
5946 64 30 0 258.8025110881319 169.28162473500257 832.8264366554397 0 0 0
5987 64 34 0 263.09410032850343 173.32897610695107 831.5176804402367 0 0 0
5983 64 31 0 257.19244529620755 174.59985738251424 832.9160701020688 0 0 0
5986 64 28 -1 261.7335254028902 176.5448459965919 833.0506950707263 0 0 0
5982 64 28 -1 255.91113147833195 178.0263223143836 831.806824338488 0 0 0
5988 64 21 0 264.4709886765037 175.1691421928668 828.422017665666 0 0 0
5992 64 23 1 271.7443961660925 174.7310433788233 830.709191753915 0 0 0
5989 64 23 1 266.72568916829863 176.920625620594 830.9911378602666 0 0 0
5995 64 23 1 275.4731045101123 171.3619689141344 832.1739017139823 0 0 0
5991 64 29 0 268.86586009202665 172.27214523931426 831.0974906781614 0 0 0
5996 64 28 -1 277.37368919465666 174.482498157208 833.2632977992512 0 0 0
4072 44 28 -1 299.80863203638006 165.2622639025977 831.1346398984588 0 0 0
6323 68 29 0 301.40780090873005 177.22395986523648 831.883783549124 0 0 0
6344 68 33 0 304.07412142096206 183.7681976527749 832.9941471099706 0 0 0
6324 68 30 0 305.06470699738173 178.0029183539563 831.1213683435237 0 0 0
6345 68 23 1 305.7410877632846 183.3124024842919 829.5631117801523 0 0 0
6326 68 28 -1 309.20485106108544 183.14224890482348 832.5384311264576 0 0 0
4809 52 32 0 334.9985736172985 166.89471101671745 824.7473047713579 -1 0 0
4805 52 30 0 338.77308607728986 165.84435240940815 827.473548598974 -1 0 0
4810 52 30 0 337.147728404511 169.32333675808258 826.8255990027556 -1 0 0
4828 52 38 0 332.8914339282592 170.23933732193848 829.8249344542841 -1 0 0
4811 52 28 -1 336.7890765856298 169.2807943936571 830.4760156199142 -1 0 0
4830 52 23 1 330.4218644666418 174.10937710553233 826.8209304229217 -1 0 0
4833 52 27 -1 331.23266424375447 181.03927547152355 831.3875327493554 -1 0 0
4835 52 38 0 336.908480514051 182.83650482676077 830.0836418744213 -1 0 0
4832 52 31 0 331.928766651747 177.29218634913093 831.2891385516053 -1 0 0
4831 52 37 0 329.34282268505524 174.58512790234647 830.5018402124334 -1 0 0
4829 52 28 -1 333.9792603044611 173.4194975241283 828.0272945202393 -1 0 0
4836 52 28 -1 337.95416308857835 184.39389747138742 832.6406994340139 -1 0 0
4839 52 35 0 339.0859391570035 181.86492075514693 831.1406406567196 -1 0 0
4834 52 39 0 334.56864431684744 182.02122378381418 833.0040678359086 -1 0 0
4842 52 21 0 340.8403687573212 177.3853008308028 831.6605322224876 -1 0 0
4838 52 40 0 339.73125532491144 179.57621220048273 831.9230701911321 -1 0 0
4804 52 25 1 339.86480665919237 167.32840325002357 830.4458563321332 -1 0 0
4803 52 25 1 340.5186371476763 170.4989882456373 832.5311444148434 -1 0 0
6947 74 23 1 170.18774914414527 192.3318305728659 820.3476989813339 0 0 0
6943 74 21 0 169.726371570978 190.61671789937944 826.647994298331 0 0 0
6950 74 23 1 169.53154446727865 195.55515015416964 818.1973079590921 0 0 0
6946 74 29 0 168.36449638477276 194.8147490442307 821.9262316840164 0 0 0
6944 74 23 1 169.6451119014091 189.0104476287787 823.525673716189 0 0 0
6951 74 28 -1 170.58133405430993 192.84627293661893 815.8504352678702 0 0 0
6940 74 35 0 167.55139227699738 187.66167312545193 829.8510076585562 0 0 0
6945 74 23 1 166.8124519769429 191.33915401472868 822.4475531511398 0 0 0
6948 74 23 1 168.3096600972111 191.18596753696727 819.6942589916958 0 0 0
6949 74 21 0 166.8016607809097 194.5989342881277 818.8139298779207 0 0 0
6942 74 34 0 166.62400926957218 191.06333337222853 826.6975302713149 0 0 0
6941 74 28 -1 165.28124799696096 187.4539736299643 826.7773466543074 0 0 0
5170 53 45 0 183.62147644817804 185.48959113280446 829.9965696658824 0 0 0
6904 74 25 1 167.5095195813823 200.03785035896004 829.6127460684229 0 0 0
6905 74 25 1 169.67802355025654 202.93274853197636 830.930122403754 0 0 0
5169 53 45 0 183.9779554775976 189.23739542005788 830.8886568928939 0 0 0
6939 74 40 0 166.20708272313993 190.59704611497352 831.9820361561965 0 0 0
6903 74 27 -1 165.05190972902994 199.0252150641297 828.0268259368985 0 0 0
7291 78 22 0 188.7884296832312 198.82407611647892 825.5224030514488 0 0 0
7290 78 23 1 189.47582083079246 202.44882739528106 824.4867668976642 0 0 0
7292 78 32 0 191.4238702028897 198.60572649624658 828.2992220447654 0 0 0
7289 78 30 0 189.29491958715488 203.83466992382634 828.076736039831 0 0 0
5199 56 23 1 195.42553006165093 186.1715827611478 831.485882527925 0 0 0
5180 56 28 -1 199.78932502540155 187.4630842166053 831.0813354391867 0 0 0
5200 56 22 0 192.01879882800048 186.9941316696139 833.108559523975 0 0 0
5181 56 23 1 203.24466169198425 187.66308066913868 832.69964590442 0 0 0
7288 78 30 0 188.02961738891634 202.51063393424536 831.4958508428354 0 0 0
7293 78 30 0 191.44575802485133 198.97109087103925 832.1505047070787 0 0 0
7294 78 28 -1 194.18236393009494 201.38709999601164 833.2309818230358 0 0 0
7311 78 38 0 197.16200861195173 199.5901479645448 831.5407317180875 0 0 0
7313 78 23 1 198.82379750843654 194.4824001281785 831.4656724905743 0 0 0
7310 78 28 -1 198.97978298009645 202.52617401162644 833.1504171763189 0 0 0
7314 78 37 0 201.66928551278752 196.5189869122563 832.9673927259063 0 0 0
5220 56 40 0 210.22297511477714 185.05071023130748 828.9432147127043 0 0 0
5218 56 28 -1 208.43241349913802 187.5208581585676 824.4409732339541 0 0 0
5219 56 31 0 207.12858460246198 187.16133958937027 828.0167067379676 0 0 0
5221 56 35 0 212.3074672056197 187.80277277894828 827.3373562904866 0 0 0
5224 56 21 0 214.87524510447176 187.9836475716022 831.593174296227 0 0 0
5222 56 28 -1 210.47244369721494 190.53590713491954 829.3817410678889 0 0 0
5225 56 23 1 215.0547410241952 191.80223970984264 831.970497223639 0 0 0
5182 56 30 0 206.16350577557563 185.15635776734874 833.1089121526774 0 0 0
5223 56 34 0 211.16883353065 188.4909971077221 832.5235268465652 0 0 0
7276 78 28 -1 211.1879589512797 200.7432880079851 832.9017612116487 0 0 0
5597 60 27 -1 225.92015853240048 188.31562158450828 825.6877901436013 0 0 0
5598 60 39 0 227.81547143011778 191.30736059466682 827.1601359121341 0 0 0
5596 60 31 0 228.51897360292887 185.69451459674917 826.6376096506722 0 0 0
5599 60 38 0 229.87347788320707 192.73200660933378 824.2598768646717 0 0 0
5602 60 40 0 234.23457101307486 192.5622571995657 827.0009627314415 0 0 0
5600 60 28 -1 230.27711945443127 196.15227506702422 825.9906326841376 0 0 0
5606 60 21 0 239.82660142970175 194.9384375536809 826.4075783100997 0 0 0
5603 60 35 0 235.06710593789964 195.87394368886157 825.3138684023063 0 0 0
5601 60 31 0 231.71367083267768 194.5446046684841 829.1468910958738 0 0 0
5604 60 28 -1 235.56334754738648 197.61887363911885 828.7376361416157 0 0 0
5607 60 23 1 240.80473376388963 198.43625546167655 827.6601667451152 0 0 0
5576 60 29 0 236.1940332628493 184.9946585006077 830.453626405359 0 0 0
5567 60 25 1 240.50699710304275 186.33535235334776 830.1758521701112 0 0 0
5605 60 34 0 237.87830129174458 194.7565914390981 829.7295229208786 0 0 0
5564 60 30 0 234.1671951105865 190.93478699827833 832.5857593658646 0 0 0
5608 60 23 1 240.73516018702668 198.1258977076609 831.5062986010533 0 0 0
5609 60 29 0 243.57326754978678 195.6245523036432 830.9189766337701 0 0 0
7724 81 3 1 230.59305556055153 204.31253588708887 832.749408999656 0 0 0
8231 88 28 -1 252.0541834418943 203.3845744340016 816.6649071578229 0 0 0
8230 85 8 -1 250.83264905020607 203.80877670400557 820.0364092558123 0 0 0
8269 88 37 0 261.59672629357016 203.88627853909088 821.219506252799 0 0 0
8229 85 7 -1 247.51717081378666 203.91201379890703 821.5503602386111 0 0 0
8228 85 8 -1 246.17396390964677 204.49040844272236 824.5424202131336 0 0 0
5610 60 23 1 245.95109522957813 198.25839881590082 829.5395586842666 0 0 0
5613 60 23 1 249.54467286896545 197.69933903218146 833.3030567798829 0 0 0
5614 60 28 -1 250.42586506495317 201.3257016347252 832.5152639132399 0 0 0
5611 60 23 1 245.42687725364615 201.3330200988415 831.830614004369 0 0 0
8268 88 23 1 264.91961845492256 202.64704744498516 822.7556575736061 0 0 0
8483 89 17 0 281.8274019131886 187.52329246179667 826.363697872563 0 0 0
8482 89 17 0 279.85325760782604 189.9129187771663 823.8049342058899 0 0 0
8481 89 8 -1 281.94964802006916 193.6837868981585 824.0751410072162 0 0 0
8480 89 2 0 284.1526450858285 196.97113698539957 824.8054037592907 0 0 0
8247 88 32 0 266.16214381943627 203.39391905001668 831.7318587831724 0 0 0
8484 89 3 1 282.21952868360785 188.81967031584057 829.9496279598013 0 0 0
6346 68 22 0 304.0745707084664 185.38162480516272 826.7596059937686 0 0 0
6347 68 34 0 301.656096694588 187.0745854515229 829.1756846796037 0 0 0
6348 68 35 0 301.83124914031754 190.64602532194402 830.5037848497717 0 0 0
8479 90 28 -1 285.6444942796989 197.98166411787545 827.9399117088236 0 0 0
8478 90 23 1 284.83871129204914 196.9087597816185 831.5814716723057 0 0 0
8477 90 21 0 288.5610694738837 196.42203697914823 832.2173051845692 0 0 0
8476 90 23 1 289.1706989436967 200.06304291036784 831.1828601139919 0 0 0
9010 96 22 0 321.6504053012242 193.86098424427288 824.8336011807066 0 0 0
9011 96 32 0 320.8801169613265 196.5091480498161 826.0880571256781 0 0 0
9012 96 30 0 322.32202807746256 199.85488875340442 827.3392132702123 0 0 0
9009 96 23 1 322.6333534517061 191.49825353146278 827.5435978090907 0 0 0
9032 96 23 1 314.01298675128845 202.29111139093726 827.5151936857715 0 0 0