LAMMPS data file via write_data, version 23 Jun 2022, timestep = 1000

16560 atoms
40 atom types
8960 bonds
1 bond types

2675 2810 xlo xhi
577 712 ylo yhi
1600 2800 zlo zhi

Masses

1 131.2
2 57.05
3 128.2
4 101.1
5 156.2
6 71.08
7 115.1
8 129.1
9 163.2
10 99.06999999999999
11 113.2
12 128.1
13 186.2
14 147.2
15 87.08
16 137.1
17 114.1
18 97.12
19 103.1
20 113.2
21 131.2
22 57.05
23 128.2
24 101.1
25 156.2
26 71.08
27 115.1
28 129.1
29 163.2
30 99.06999999999999
31 113.2
32 128.1
33 186.2
34 147.2
35 87.08
36 137.1
37 114.1
38 97.12
39 103.1
40 113.2

Bond Coeffs # harmonic

1 9.6 3.81

Atoms # full

3478 9 16 0.5 2680.2890545483338 592.2129574368163 2128.477714304405 0 -1 -1
3479 9 1 0 2680.973579931308 590.6193166820451 2132.079434057974 0 -1 -1
3477 9 5 1 2678.700720823812 593.4787508765338 2125.360263298825 0 -1 -1
3476 9 12 0 2676.474490185093 594.2579506955753 2122.0781486768874 0 -1 -1
3475 9 15 0 2678.235396293342 595.1835248886484 2118.735046861792 0 -1 -1
3525 9 32 0 2686.2007827787547 595.4911752703067 2129.8361170070525 0 -1 -1
8246 20 2 0 2730.891872392781 595.7134965743011 2131.464340066273 0 0 -1
8247 20 6 0 2734.534378292804 594.30316091471 2132.0966296579977 0 0 -1
3608 9 2 0 2792.70041064144 590.7850335240892 2130.6622526518468 -1 -1 -1
3607 9 2 0 2796.2519551420232 591.2777148121496 2131.7635611631144 -1 -1 -1
3609 9 6 0 2792.682900006888 587.1743671215132 2131.409047205585 -1 -1 -1
3524 9 35 0 2684.0745436622888 596.9538874989346 2128.88179151013 0 -1 -1
3528 9 27 -1 2680.848194983184 598.029437545698 2131.4054238752265 0 -1 -1
3527 9 22 0 2683.425660525865 598.0968656077831 2132.397409409674 0 -1 -1
3521 9 28 -1 2684.7868914886403 597.1627081397172 2125.646850027234 0 -1 -1
3526 9 29 0 2686.3566707633477 598.0712510791262 2131.7492531094485 0 -1 -1
3473 9 10 0 2676.5821016634727 601.8683562999197 2117.6091998599472 0 -1 -1
3474 9 1 0 2676.707124277345 598.1405127707615 2117.144452046268 0 -1 -1
3472 9 3 1 2675.0769780541164 604.826491444785 2115.3178969741734 0 -1 -1
3529 9 30 0 2681.176245635381 600.7153810942448 2129.7627246584134 0 -1 -1
3530 9 21 0 2678.2915819475684 601.0049744179807 2129.650204103148 0 -1 -1
3523 9 34 0 2685.9295841649473 600.1788316983493 2128.5782397770063 0 -1 -1
3547 9 26 0 2678.2911471049197 601.5361941719331 2132.9760666116263 0 -1 -1
3546 9 34 0 2680.532702061393 603.7180018311382 2131.6848496263015 0 -1 -1
3517 9 27 -1 2683.3388457220476 599.6016802099687 2122.693822496339 0 -1 -1
3560 9 31 0 2693.2098889807157 605.1323666502074 2128.9242734571317 0 -1 -1
3545 9 24 0 2680.4029465230337 606.165533184249 2129.9565574421645 0 -1 -1
3544 9 30 0 2682.6766562429098 607.328009393629 2128.2105888871297 0 -1 -1
3519 9 31 0 2686.26185948757 602.1172480497796 2124.9968126851295 0 -1 -1
3531 9 27 -1 2679.1052605459336 602.430506663282 2127.3762135928064 0 -1 -1
3532 9 30 0 2681.1544843069714 604.7344495147812 2125.9892211680676 0 -1 -1
3516 9 28 -1 2683.277392315193 603.2752419488886 2122.8743071240615 0 -1 -1
3520 9 25 1 2683.579713813666 600.3142518165113 2125.8828202270283 0 -1 -1
3518 9 28 -1 2686.290587138105 599.9495294447506 2122.8644282900477 0 -1 -1
3522 9 34 0 2687.3658059014597 598.8317545395638 2126.4642185964167 0 -1 -1
3504 9 3 1 2680.521724130579 611.4062286273333 2132.596402242355 0 -1 -1
3559 9 27 -1 2694.121157484704 608.047052253171 2130.4595460171167 0 -1 -1
3533 9 34 0 2680.590306215566 607.6994766714612 2124.8812534832928 0 -1 -1
3514 9 21 0 2688.33407824095 604.6602901664404 2120.5406516008097 0 -1 -1
3515 9 24 0 2685.385644102252 603.3966677651069 2120.885662421663 0 -1 -1
3513 9 27 -1 2689.5708689640737 606.1901613605363 2118.3745824722964 0 -1 -1
3569 9 40 0 2689.555540981677 610.4368136145257 2130.5096319945196 0 -1 -1
3543 9 34 0 2683.1901051871087 610.5756029987392 2127.0766113137624 0 -1 -1
3505 9 30 0 2684.6833966624677 610.9427641609379 2130.613325041015 0 -1 -1
3534 9 40 0 2682.3548477469594 610.2643489716284 2123.4685754575844 0 -1 -1
3567 9 30 0 2692.714652334778 609.3546341724868 2126.9095471521546 0 -1 -1
3512 9 28 -1 2688.7722056266475 609.4121966706596 2119.355564216284 0 -1 -1
3507 9 30 0 2688.287374975977 610.8613382993 2127.3833477971 0 -1 -1
3568 9 36 0.5 2692.0599034098077 611.4924276184452 2128.9777251456408 0 -1 -1
3506 9 34 0 2686.243974581304 612.7638314707086 2128.6661176148073 0 -1 -1
3570 9 35 0 2688.3130510086767 613.2441794474169 2131.7466655903513 0 -1 -1
3571 9 37 0 2685.601371237199 613.8677600849735 2132.815189129248 0 -1 -1
3542 9 26 0 2685.4418370653116 611.1607413155542 2125.2160819636297 0 -1 -1
3510 9 39 0 2691.1439797684925 610.7640344865586 2123.4031154523523 0 -1 -1
3511 9 24 0 2690.88766771866 610.2104945687711 2120.9265771321275 0 -1 -1
3535 9 38 0 2681.6515181148375 613.7291492153694 2123.8916728390204 0 -1 -1
3470 9 12 0 2675.9593897667255 611.7814410850194 2115.443881772038 0 -1 -1
3469 9 4 0 2675.166285750635 612.2370595489493 2118.8991551769905 0 -1 -1
3558 9 28 -1 2692.469499016931 608.2556146488256 2132.707897121575 0 -1 -1
3503 9 5 1 2676.8571804974167 612.4010525643339 2131.973425478427 0 -1 -1
3562 9 40 0 2692.8409511317946 602.956544935589 2124.764019867102 0 -1 -1
3563 9 23 1 2694.092642115283 601.7421693912296 2122.5266711620307 0 -1 -1
3509 9 25 1 2692.826136688456 613.1975769490645 2124.8386137437196 0 -1 -1
3541 9 34 0 2687.9960381926044 613.5170097055668 2124.7198033090162 0 -1 -1
3508 9 22 0 2690.309234046602 613.5673299115475 2126.360717365606 0 -1 -1
3538 9 34 0 2685.7565271633325 615.5652761925496 2121.8638776823527 0 -1 -1
3540 9 26 0 2690.087233869985 614.3399932456296 2122.7690034817883 0 -1 -1
3561 9 40 0 2694.5140105925248 604.1631551850753 2126.64127755498 0 -1 -1
3564 9 22 0 2696.670884101558 603.6412229576388 2123.1851119737007 0 -1 -1
3566 9 35 0 2695.458692841775 608.6255949548154 2126.0073665031814 0 -1 -1
3565 9 40 0 2695.7358442636764 606.9393418580261 2123.6971100649016 0 -1 -1
8248 20 6 0 2735.6321787210604 597.6718419964102 2132.9724043220367 0 0 -1
8260 20 2 0 2752.824472348002 608.9598872788953 2132.901611825834 0 -1 -1
8261 20 15 0 2753.2762441183204 605.98167385191 2130.952906119579 0 -1 -1
8262 20 2 0 2756.5012520377154 606.5349837865389 2132.0596687845755 0 0 -1
3587 9 5 1 2786.0719277287812 606.8719508317898 2124.392299724461 -1 -1 -1
3589 9 2 0 2784.5104361738863 604.3320437848987 2129.8659924608187 -1 -1 -1
3588 9 14 0 2787.4017783747577 605.3729072362713 2127.860304251915 -1 -1 -1
3592 9 18 0 2781.1844887807956 603.4118252150654 2121.751341539931 -1 -1 -1
3590 9 2 0 2782.1326079473088 601.1383760998157 2129.1291954831117 -1 -1 -1
3440 9 2 0 2785.2190507141895 615.2393449621376 2126.4474789801275 -1 -1 -1
3586 9 2 0 2786.81424766866 608.9160818391559 2121.439800398091 -1 -1 -1
3585 9 15 0 2786.657073834747 611.9684092390338 2118.9135795095726 -1 -1 -1
3442 9 10 0 2779.7645639094194 610.7775216132004 2130.3119481545386 -1 -1 -1
3591 9 17 0 2780.680019890404 602.5869958440961 2125.892124340345 -1 -1 -1
3594 9 2 0 2785.751007577084 603.8036384456435 2118.124497457215 -1 -1 -1
3595 9 14 0 2789.053388739984 602.0005395386374 2117.5992128024004 -1 -1 -1
3593 9 2 0 2783.2412881306545 601.043346833096 2119.568905742837 -1 -1 -1
3439 9 14 0 2788.492087022593 614.2605636624504 2127.661971319029 -1 -1 -1
3441 9 8 -1 2782.194859340013 613.1375191752194 2128.5740316396827 -1 -1 -1
3584 9 5 1 2787.2835937841965 615.4444439228189 2120.95630853406 -1 -1 -1
3443 9 11 0 2777.980330546505 607.6625918413247 2130.698498374127 -1 -1 -1
3444 9 1 0 2778.047886360962 604.6675933427869 2133.1263185515254 -1 -1 -1
3471 9 10 0 2808.8323637695603 608.3873390471869 2115.0047124574135 -1 -1 -1
3468 9 8 -1 2809.6279253291555 615.0508443290863 2121.506730868622 -1 -1 -1
3596 9 2 0 2791.0846844143425 603.3633175282001 2120.814868093833 -1 -1 -1
3438 9 4 0 2791.035933194295 615.5515770884259 2130.301049192714 -1 -1 -1
3602 9 2 0 2801.2486951633186 601.3023654025671 2133.30269636364 -1 -1 -1
3601 9 14 0 2799.716376814931 600.8858728664422 2129.8898087490857 -1 -1 -1
3600 9 2 0 2799.5944387295267 604.1324058234604 2127.537581348838 -1 -1 -1
3599 9 2 0 2798.7841040481458 603.7348429429546 2123.80915385458 -1 -1 -1
3598 9 12 0 2795.9631467316076 601.0761134051335 2123.9926519835963 -1 -1 -1
3597 9 17 0 2792.3339658818904 600.4754226602714 2123.2873510361906 -1 -1 -1
3466 9 8 -1 2807.2229205639533 614.834157689601 2127.869571409093 -1 -1 -1
3465 9 4 0 2803.8919378295836 612.7314220643577 2128.890706749025 -1 -1 -1
3502 9 15 0 2807.974570582088 611.5486662041064 2132.83542252429 -1 -1 -1
3464 9 14 0 2800.659156515233 614.7384477981326 2129.644460359285 -1 -1 -1
3463 9 5 1 2797.376255729243 615.4210994168545 2131.570920154749 -1 -1 -1
3573 9 28 -1 2682.002081856067 618.0399198166411 2132.121905369519 0 -1 -1
3572 9 26 0 2684.678277196054 616.9504713519264 2132.1597885041624 0 -1 -1
3536 9 23 1 2682.4355109211106 616.2151433628293 2122.1045881936666 0 -1 -1
3539 9 25 1 2688.527145951719 617.0338560473244 2122.3735342801374 0 -1 -1
3537 9 38 0 2684.0855609633813 618.1364840480713 2121.451073106239 0 -1 -1
3574 9 38 0 2681.9807127826616 620.9896076422746 2130.7253693658554 0 -1 -1
3575 9 23 1 2676.304750905628 624.0068446410095 2132.391269154852 0 -1 -1
8274 20 3 1 2754.702924002989 619.0729473823443 2132.6486281294997 0 0 -1
3467 9 9 0 2809.583415842392 615.7160004053668 2125.085444296833 -1 -1 -1
3583 9 8 -1 2791.323336058689 615.6950745412375 2121.530570618557 -1 -1 -1
3582 9 11 0 2794.5869457782414 616.96139054499 2123.5682039542885 -1 -1 -1
3580 9 5 1 2800.2884324206907 621.619035917712 2125.038321927749 -1 -1 -1
3581 9 12 0 2798.293235737481 618.3348628510336 2124.4937952810783 -1 -1 -1
3462 9 10 0 2795.9868392996814 618.8002924464911 2132.7407825780656 -1 -1 -1
3579 9 37 0 2803.13018028868 622.6831883446869 2127.2223796150943 -1 -1 -1
3576 9 36 0.5 2809.5376950954274 624.6395151382188 2130.6836756312573 -1 -1 -1
3577 9 37 0 2806.7517433520625 625.25939976524 2130.464020771354 -1 -1 -1
3578 9 35 0 2805.3271002123824 624.7511689394909 2128.3796548263035 -1 -1 -1
3461 9 14 0 2794.6602304363737 621.7247464521561 2131.132391688067 -1 -1 -1
3348 9 38 0 2685.7478280933915 652.6128137327503 2127.484049100194 0 -1 -1
3344 9 24 0 2682.850958309422 650.463439118465 2129.922931524512 0 -1 -1
3341 9 35 0 2680.074222287036 644.529004512214 2131.6699735092157 0 -1 -1
3345 9 26 0 2680.391869606639 645.1599672494671 2125.692879618813 0 -1 -1
3347 9 34 0 2679.9399603748693 650.9361422165418 2124.860290157406 0 -1 -1
3342 9 24 0 2676.8979957643146 644.0020765079901 2129.540463201729 0 -1 -1
3346 9 32 0 2678.4538199590725 647.5892125746954 2123.5054824396148 0 -1 -1
3343 9 30 0 2676.874795205262 647.7990956644805 2128.827576241858 0 -1 -1
3331 9 38 0 2804.9541615593816 642.4884879557828 2128.6474050255347 -1 -1 -1
3328 9 40 0 2805.43923329139 649.5473623035797 2121.864988928589 -1 -1 -1
3329 9 28 -1 2803.8036159191274 646.8810569056282 2124.1492338500775 -1 -1 -1
3330 9 40 0 2806.040983305356 645.6278218980942 2126.917201526008 -1 -1 -1
3319 9 30 0 2805.960700893039 652.2605860509457 2126.312461786449 -1 -1 -1
3318 9 25 1 2802.530437174641 650.6962052252542 2126.446378270408 -1 -1 -1
3317 9 40 0 2802.136321994363 648.188492279729 2129.1523102866277 -1 -1 -1
3327 9 38 0 2804.3368457056777 653.1710824756341 2121.639303319774 -1 -1 -1
3316 9 29 0 2801.5521248278674 644.4271025413104 2129.1039158949948 -1 -1 -1
3332 9 35 0 2804.42891661684 642.2757862871707 2132.308981190133 -1 -1 -1
3315 9 28 -1 2799.291622798645 641.5917453925181 2130.5681454168734 -1 -1 -1
3314 9 35 0 2797.8537770044945 644.1832807820638 2132.9820092132427 -1 -1 -1
3349 9 22 0 2686.9885628093707 654.8790802908934 2130.3424672276033 0 -1 -1
3350 9 26 0 2683.5027950090152 655.839202612435 2131.6073393181614 0 -1 -1
3351 9 19 0 2683.9384676602745 659.5507510195602 2131.2531555753417 0 -1 -1
3352 9 22 0 2680.545134862106 659.4117858890128 2133.0230928811866 0 -1 -1
3321 9 28 -1 2677.745608871587 659.6737717140005 2125.746904834305 0 -1 -1
3322 9 27 -1 2675.91426003906 662.7919764030469 2124.6186299942087 0 -1 -1
3326 9 28 -1 2803.9878957690935 655.135528391771 2118.5109087299697 -1 -1 -1
3325 9 27 -1 2805.9509570699956 658.4571844971642 2118.9584569239046 -1 -1 -1
3320 9 24 0 2807.4257030265276 655.0912907698693 2124.127142151087 -1 -1 -1
3323 9 28 -1 2807.298867427937 663.7243540614554 2125.508246717647 -1 -1 -1
3324 9 37 0 2804.0553783294217 661.575022971238 2119.9687298651875 -1 -1 -1
3378 9 26 0 2802.9263431841573 670.8481432275037 2123.9087307992827 -1 -1 -1
3379 9 22 0 2796.653270321031 669.1736105422585 2124.5407952689075 -1 -1 -1
3380 9 33 0 2794.8177512756556 667.5340838010753 2127.2215475427815 -1 -1 -1
3382 9 37 0 2793.8955918462466 661.8270663242702 2128.3816565169577 -1 -1 -1
3381 9 22 0 2795.2726312069094 664.6275779085237 2126.432258773226 -1 -1 -1
3383 9 31 0 2794.8775629480447 662.8951349117684 2130.877976891551 -1 -1 -1
3376 9 38 0 2801.4296070260793 672.972755294348 2127.3164205137105 -1 -1 -1
3375 9 26 0 2795.3642938377593 671.9782531572943 2127.3651089840178 -1 -1 -1
3366 9 30 0 2796.1264246571905 672.6478162437195 2132.677456335807 -1 -1 -1
3717 9 1 0 2778.1417302536634 677.3714952211383 2133.296595870954 -1 -2 -1
3715 9 15 0 2779.1325953786773 683.8565132407177 2131.553339352907 -1 -2 -1
3377 9 27 -1 2803.1221795896386 674.0273506068692 2124.41165239481 -1 -1 -1
3374 9 36 0.5 2794.395754960394 674.5336861250541 2128.2842678723823 -1 -1 -1
3368 9 31 0 2794.0375025320777 676.8678535130563 2132.672997289835 -1 -1 -1
3372 9 40 0 2790.9106290344803 676.6035470060307 2130.828719883735 -1 -1 -1
3373 9 31 0 2792.4948257581273 674.3573920987883 2130.867514848768 -1 -1 -1
3367 9 25 1 2799.7810797989387 677.1224543800578 2131.3848627427365 -1 -1 -1
3369 9 30 0 2793.696344059287 679.9735362671407 2131.49803340787 -1 -1 -1
3370 9 28 -1 2791.326243420493 680.9355265763746 2132.363553823493 -1 -1 -1
3481 9 7 -1 2679.658323060497 586.2553821348108 2137.480950008724 0 -1 -1
3480 9 20 0 2681.507120264749 587.8188954873841 2134.2837260704177 0 -1 -1
3482 9 2 0 2676.4889609446573 585.757145447906 2139.2162446674715 0 -1 -1
3483 9 5 1 2676.0554570810978 584.8408269030866 2142.925960395608 0 -1 -1
3678 9 6 0 2675.809830999385 582.3019750349762 2149.712912661066 0 -1 -1
3677 9 12 0 2679.06824060441 582.9881153935918 2152.076356901412 0 -1 -1
6321 16 11 0 2766.923779136237 585.6240809210707 2152.4000664016085 0 0 -1
3620 9 2 0 2778.774067806626 577.7503487175758 2145.424785604362 -1 -1 -1
3621 9 2 0 2777.693644967927 580.6055610887709 2147.7816188208753 -1 -1 -1
3613 9 17 0 2787.031818883656 583.6006131987748 2139.634245979129 -1 -1 -1
3612 9 2 0 2790.1523435660674 585.0833432193745 2138.001731284582 -1 -1 -1
3630 9 20 0 2776.828568201373 579.1700041039555 2151.8593678285415 -1 -1 -1
3622 9 2 0 2778.7617957200478 583.911019202463 2149.475088846467 -1 -1 -1
3623 9 1 0 2782.05477305865 582.2725012986399 2150.7539409283354 -1 -1 -1
3614 9 17 0 2789.347382056295 580.2057381312006 2140.025922108985 -1 -1 -1
3606 9 2 0 2798.2387733555693 593.1882160775759 2134.0221484706217 -1 -1 -1
3611 9 11 0 2793.4465793201007 583.9379060144123 2136.9388982302103 -1 -1 -1
3484 9 13 0 2807.6474518782256 583.0840941178585 2143.145819855803 -1 -1 -1
3485 9 19 0 2804.3150290354997 582.87427872273 2140.903152404311 -1 -1 -1
3610 9 2 0 2793.914447272538 587.3252795255686 2135.1388051103486 -1 -1 -1
3486 9 7 -1 2801.2365230770965 584.3914889682572 2142.691507850249 -1 -1 -1
3487 9 19 0 2800.596984419787 585.9306416579824 2146.260046962015 -1 -1 -1
3491 9 17 0 2795.767381262902 595.8467393051955 2143.5903787124053 -1 -1 -1
3679 9 14 0 2808.0666851152846 579.9512227868062 2151.8174723428283 -1 -1 -1
3489 9 11 0 2799.4409247262747 592.293338205382 2147.2081663214267 -1 -1 -1
3488 9 3 1 2801.7075649160356 589.1782329069166 2147.386699391305 -1 -1 -1
3490 9 18 0 2797.2820688147067 592.6125055277 2144.4993420488495 -1 -1 -1
3605 9 5 1 2795.4860171384744 595.6824260045206 2135.1125410439445 -1 -1 -1
3615 9 12 0 2792.1898179775303 579.081876565293 2142.4039247674764 -1 -1 -1
3551 9 40 0 2683.9920339040323 603.42951848637 2134.7781856003953 0 -1 -1
3548 9 27 -1 2679.559696249548 602.9228084398163 2135.0474163849553 0 -1 -1
3552 9 26 0 2684.224471597155 606.6801786195715 2133.6843097758606 0 -1 -1
3555 9 31 0 2688.5069156573986 606.6946290030556 2133.498552950823 0 -1 -1
3549 9 27 -1 2680.9619226187406 606.302318346989 2135.706458975966 0 -1 -1
3550 9 32 0 2682.6851772214495 604.6341043801737 2137.0018319285427 0 -1 -1
3556 9 39 0 2688.759928958418 610.3933093297377 2133.912452211351 0 -1 -1
3554 9 35 0 2687.4416787952705 606.115931951152 2135.9119763590015 0 -1 -1
3553 9 32 0 2685.5349937494 608.475325242066 2135.6315866878726 0 -1 -1
3557 9 22 0 2691.7244406948203 611.4682921875021 2133.7528410213845 0 -1 -1
8242 20 2 0 2732.3413666186984 599.3498188507108 2140.3999222920784 0 0 -1
8240 20 9 0 2731.0001624399347 601.8734982097634 2145.800802422094 0 -1 -1
8243 20 15 0 2728.9760805571477 601.2112509428412 2139.831286378059 0 0 -1
8244 20 17 0 2728.3355422476757 600.7802169906038 2136.3270321690798 0 0 -1
8245 20 15 0 2729.335747353652 598.5527924365213 2133.743578925125 0 0 -1
8239 20 15 0 2731.090279918844 605.3818394404102 2145.2852502690425 0 -1 -1
8238 20 17 0 2732.2960255849202 608.5481284178674 2146.386129364 0 -1 -1
8271 20 1 0 2750.419505994278 612.652870724589 2137.748077364969 0 -1 -1
8270 20 15 0 2751.037157517116 613.2470946007835 2141.5593159230507 0 -1 -1
8249 20 20 0 2737.2363771284504 600.3706611019768 2135.0702414329394 0 0 -1
8241 20 15 0 2733.8145911693214 599.9627960389793 2144.1075940608985 0 -1 -1
8256 20 17 0 2750.534403340184 598.6754732476057 2138.792565897862 0 0 -1
8252 20 2 0 2746.1357239372755 604.5009367216574 2136.3416916420497 0 0 -1
8253 20 15 0 2748.536244069406 604.6052142290295 2139.1304298173736 0 0 -1
8251 20 13 0 2744.112017248461 602.9916839472971 2134.1456088524396 0 0 -1
8236 20 2 0 2736.424738842707 611.4156690895265 2149.3648996576935 0 -1 -1
8237 20 17 0 2733.252356229862 609.4178222589843 2150.1656715763133 0 -1 -1
8250 20 2 0 2740.7160811695794 601.4834327979044 2135.9059962462816 0 0 -1
8255 20 15 0 2747.118856443425 598.4914918981283 2140.115399785932 0 0 -1
8254 20 6 0 2746.5248097886533 602.2138603278386 2140.51601150931 0 0 -1
8269 20 15 0 2752.0942037176565 609.7817683337762 2142.7673829935734 0 -1 -1
8235 20 15 0 2736.8237358010665 613.859535848637 2152.326626540766 0 -1 -1
8257 20 6 0 2753.4021393208964 600.3740298996453 2139.127262442234 0 0 -1
8258 20 2 0 2754.0536918580488 604.4099229479017 2138.7955014505583 0 0 -1
8259 20 15 0 2752.627939750206 606.9928368644722 2136.254161064345 0 0 -1
8272 20 7 -1 2753.145845382245 614.5002505640981 2136.1875739703146 0 0 -1
8263 20 14 0 2758.706465656268 606.0527275275957 2134.8033240084856 0 -1 -1
8264 20 17 0 2761.326470068302 605.5837107222496 2137.448595434599 0 -1 -1
8266 20 2 0 2761.485295037104 608.2692492684051 2142.82291286346 0 -1 -1
8267 20 14 0 2758.356250169253 610.3449009207336 2142.349886597037 0 -1 -1
8268 20 2 0 2755.191794369892 608.699957285559 2141.4197676209847 0 -1 -1
8265 20 2 0 2763.2516310405113 605.8180942404108 2140.671547503205 0 -1 -1
3445 9 10 0 2780.760015096678 602.9406563821125 2135.486581009191 -1 -1 -1
3446 9 12 0 2780.927698154391 602.1295609946271 2139.234887572475 -1 -1 -1
3447 9 10 0 2780.363669142361 605.3788098525278 2141.090355180718 -1 -1 -1
3449 9 3 1 2785.21340555844 610.5323891293897 2140.511906353852 -1 -1 -1
3448 9 3 1 2783.5721217352934 607.3422650232204 2141.7622588785193 -1 -1 -1
3450 9 7 -1 2785.8335637359546 613.9525649096153 2142.666585771681 -1 -1 -1
3436 9 14 0 2790.31061523497 614.355074781877 2136.8739397190425 -1 -1 -1
3604 9 15 0 2796.6452703417826 598.7682264941956 2136.4955886159755 -1 -1 -1
3603 9 17 0 2800.1890719559556 600.237667283959 2136.7014123454946 -1 -1 -1
3492 9 15 0 2792.853782483821 596.5730779237103 2140.8076918234146 -1 -1 -1
3493 9 3 1 2791.579452018484 599.9735038388714 2140.888102088302 -1 -1 -1
3494 9 12 0 2791.178010300221 600.8126984604584 2144.8154280169892 -1 -1 -1
3495 9 15 0 2792.6742834340994 604.3398310122349 2145.860242820797 -1 -1 -1
3501 9 5 1 2805.6960461989393 614.1455164157435 2134.7335469097043 -1 -1 -1
3496 9 12 0 2796.2043238388046 606.1499430566121 2144.471213591735 -1 -1 -1
3497 9 7 -1 2796.44765561599 609.6389311057828 2143.0906153710507 -1 -1 -1
3500 9 11 0 2804.0066412763927 614.3419953402182 2138.0968429314717 -1 -1 -1
3498 9 8 -1 2800.0483845963904 610.3280557029666 2141.4467524568845 -1 -1 -1
3499 9 18 0 2803.383971977781 611.273910969359 2139.9988684572245 -1 -1 -1
3435 9 9 0 2794.164146625045 613.972431914083 2138.809809403201 -1 -1 -1
8273 20 15 0 2751.960004592677 618.379166314107 2135.3348111271166 0 0 -1
8275 20 15 0 2758.1569737672844 620.9262040697898 2134.2357385165906 0 0 -1
8279 20 2 0 2764.196528079686 617.4495223307503 2142.056975289163 0 0 -1
8278 20 13 0 2760.7164222820224 618.2767230426923 2141.005478618131 0 0 -1
8276 20 15 0 2759.4909696919162 623.6562067705371 2136.637371955744 0 0 -1
8280 20 1 0 2767.5826633348934 615.6608625588101 2142.8032839786956 0 0 -1
8277 20 2 0 2761.0117679383193 621.6179123394422 2138.839273515014 0 0 -1
3455 9 16 0.5 2784.0514862373925 626.3114140184143 2135.981777774599 -1 -1 -1
3456 9 15 0 2786.816501888157 629.13931204598 2135.7746933843237 -1 -1 -1
3457 9 3 1 2789.784012260676 630.1723397784036 2138.218805034313 -1 -1 -1
3437 9 15 0 2790.5897501682957 616.8588843347424 2133.6598818264188 -1 -1 -1
3458 9 2 0 2789.7799213090925 626.0584112395062 2137.942476555225 -1 -1 -1
3451 9 11 0 2783.8011717694044 616.7801061352665 2144.059760901828 -1 -1 -1
3452 9 3 1 2781.643819150373 618.8639908793408 2141.5050404627186 -1 -1 -1
3453 9 4 0 2783.347709030748 621.0834583062953 2138.9911548537284 -1 -1 -1
3459 9 14 0 2789.40481230739 622.2987432246236 2136.2488296658303 -1 -1 -1
3454 9 2 0 2781.936577538586 623.129286455093 2136.0149765858173 -1 -1 -1
3425 9 13 0 2800.6757029150785 629.0927032631171 2145.8366399264933 -1 -1 -1
3434 9 8 -1 2794.4231205751066 617.3166331082573 2140.6280333933096 -1 -1 -1
3460 9 2 0 2792.7145825947546 622.9703623804654 2134.172681698643 -1 -1 -1
3424 9 18 0 2802.105011290021 632.015388024008 2143.776495269739 -1 -1 -1
3426 9 3 1 2803.4844270698477 627.5646903712012 2147.737851181876 -1 -1 -1
3428 9 4 0 2808.528359264075 629.1081548532244 2143.5691734630805 -1 -1 -1
3427 9 4 0 2807.1923733689896 628.6409694384425 2147.1270489971826 -1 -1 -1
3430 9 12 0 2804.1443046303334 626.2190907243358 2138.908963189218 -1 -1 -1
3429 9 8 -1 2806.1256008565106 628.9005237085127 2141.100661536297 -1 -1 -1
3431 9 7 -1 2800.5290412745367 625.2428951228123 2139.8118733945016 -1 -1 -1
3432 9 11 0 2796.817917717427 623.9207297123965 2139.647986656901 -1 -1 -1
3433 9 3 1 2796.652660286417 620.1478363943429 2139.139046137923 -1 -1 -1
3408 9 10 0 2793.8181911047695 634.6765870352548 2148.557641631776 -1 -1 -1
3423 9 11 0 2804.886484468412 634.7501148260218 2144.130890163266 -1 -1 -1
3420 9 10 0 2807.185942174953 634.4447428362722 2151.6223886503135 -1 -1 -1
3419 9 20 0 2803.3259010611537 633.8763943791157 2152.191290212113 -1 -1 -1
3340 9 31 0 2680.365921260296 649.4690960542355 2135.5006069309684 0 -1 -1
3339 9 31 0 2675.861196899689 644.2522949043677 2134.649308202604 0 -1 -1
7874 20 24 0 2711.8196530819687 652.3898154204583 2146.3309315083243 0 -1 -1
7880 20 28 -1 2705.909777435984 651.1204302915174 2148.97249338256 0 -1 -1
7881 20 38 0 2709.3746410615736 649.7865562934791 2148.9245086444007 0 -1 -1
7882 20 40 0 2710.412141089812 646.3746041354761 2147.636537502757 0 -1 -1
7900 20 32 0 2713.3648556970343 645.4663794570548 2139.818851080306 0 -1 -1
7883 20 28 -1 2712.9419272702607 644.0243348743244 2149.3901679724127 0 -1 -1
7903 20 22 0 2718.116805121732 651.7362854128897 2134.5957603068837 0 -1 -1
7899 20 26 0 2716.194104996551 643.6507836190624 2138.0454866021764 0 -1 -1
7895 20 35 0 2722.1056099468346 644.0738399855444 2139.123807139972 0 -1 -1
7896 20 24 0 2719.7372629821666 642.8922048722548 2141.9402357965673 0 -1 -1
7884 20 40 0 2716.153026352405 643.4918253400814 2147.47394612291 0 -1 -1
7885 20 38 0 2718.2986229266744 640.627959535211 2148.581065529083 0 -1 -1
7886 20 35 0 2721.846724603253 641.0278806624207 2149.579186793795 0 -1 -1
7887 20 28 -1 2724.824768382064 638.7617904928223 2149.0022876381317 0 -1 -1
7888 20 27 -1 2726.6601588663334 636.5475148755675 2151.232981734611 0 -1 -1
7889 20 27 -1 2729.288835818918 639.0385218000705 2152.0348633243875 0 -1 -1
7870 20 29 0 2717.9616591602808 642.3050057021585 2152.1249351325755 0 -1 -1
7902 20 38 0 2715.6021648076407 648.892926562211 2135.2924924394547 0 -1 -1
7901 20 34 0 2714.2391795520643 649.1215460149652 2138.7458777920774 0 -1 -1
7904 20 26 0 2718.742428437168 652.5916727624124 2138.2690996910414 0 -1 -1
7898 20 24 0 2718.0307520658525 646.9640525097816 2138.345198116282 0 -1 -1
7873 20 30 0 2714.304799555746 649.8760055798653 2147.892339218458 0 -1 -1
7897 20 30 0 2718.3242350923388 646.4833242793769 2142.1079118617686 0 -1 -1
7893 20 31 0 2724.547531953768 643.959016802991 2143.667699227645 0 -1 -1
7892 20 30 0 2724.0688615383215 644.3146876967079 2147.3602310222623 0 -1 -1
7894 20 31 0 2723.354954045995 646.7656385933005 2141.4870011550165 0 -1 -1
7891 20 24 0 2726.835330421883 643.8323525187399 2149.8907474618472 0 -1 -1
7871 20 40 0 2717.372646421267 646.0518025157643 2151.793033785504 0 -1 -1
7872 20 25 1 2714.308915425394 648.0601237360003 2151.1985602142795 0 -1 -1
7905 20 19 0 2720.352052617134 653.5071860966465 2141.826819126412 0 -1 -1
3407 9 3 1 2791.8923813736324 634.9282149315464 2151.8451000819623 -1 -1 -1
3333 9 28 -1 2805.161391290942 639.4551196404867 2134.7250165780724 -1 -1 -1
3335 9 27 -1 2802.722187970746 639.0816651927445 2139.535122228211 -1 -1 -1
3334 9 27 -1 2802.981720929465 637.0843416096184 2136.4229969654166 -1 -1 -1
3338 9 30 0 2807.1797127748055 644.9324198788444 2134.7529678345786 -1 -1 -1
3336 9 22 0 2801.636396045425 642.2494772731253 2137.5456553799727 -1 -1 -1
3337 9 24 0 2804.9665658571125 644.1027616924962 2137.7067261656143 -1 -1 -1
3414 9 3 1 2800.1656354341417 647.4490787710511 2151.5237323422434 -1 -1 -1
3313 9 1 0 2796.4243855869872 646.9915296825976 2134.646844082363 -1 -1 -1
3413 9 12 0 2798.3365482383924 647.59640364241 2148.2574797309717 -1 -1 -1
3412 9 10 0 2795.1349273321057 647.1966291154368 2146.255685478151 -1 -1 -1
3411 9 6 0 2793.529133655642 644.0214484594877 2145.087743735374 -1 -1 -1
3409 9 3 1 2795.3412595898894 637.3798550761087 2146.3090044929345 -1 -1 -1
3410 9 5 1 2792.7047807185245 640.5163592362077 2145.6623634640655 -1 -1 -1
3422 9 2 0 2805.712800272888 637.1194679659931 2146.878411478308 -1 -1 -1
3421 9 11 0 2808.6202277113875 637.3223400674392 2149.46267852795 -1 -1 -1
3418 9 11 0 2800.024992256063 635.6105864009197 2152.5955101680934 -1 -1 -1
3353 9 31 0 2677.947587193087 659.2019403583777 2134.21110460423 0 -1 -1
3354 9 25 1 2676.6375790769334 660.5212271692801 2135.845292252234 0 -1 -1
7879 20 27 -1 2705.96219167155 654.6311173784912 2147.304822456848 0 -1 -1
7875 20 28 -1 2711.596276749551 654.7853180198667 2143.408479271392 0 -1 -1
7876 20 27 -1 2709.6838194890106 657.4751461942817 2145.2627390615307 0 -1 -1
7878 20 37 0 2706.128460659697 657.6975936405827 2149.5103815248667 0 -1 -1
7877 20 28 -1 2709.932627168605 658.2245869861347 2149.0118059306083 0 -1 -1
7906 20 22 0 2717.4842763487727 655.1484184659301 2144.060841663059 0 -1 -1
7907 20 31 0 2717.2380691134736 655.7558181895438 2146.8468295134944 0 -1 -1
7908 20 25 1 2718.3022482859524 654.9586878813666 2148.936789087001 0 -1 -1
7909 20 29 0 2717.834164311176 655.6456180603806 2151.764759670427 0 -1 -1
7935 20 22 0 2730.1306630241934 668.6240806934766 2151.8892440141494 0 -1 -1
7934 20 33 0 2732.5639222816817 666.902124824381 2152.5412423653197 0 -1 -1
7932 20 26 0 2733.7820606963487 665.6277860876181 2146.7973353612174 0 -1 -1
7931 20 27 -1 2736.30694606243 663.611891395156 2146.7539966636346 0 -1 -1
7930 20 38 0 2735.050691335669 663.0810667961998 2150.001937779339 0 -1 -1
7929 20 26 0 2736.1784422301844 664.3154863609319 2151.909458352167 0 -1 -1
7933 20 22 0 2734.201491611558 666.9147037848468 2149.2912083654924 0 -1 -1
3357 9 37 0 2807.7051214665275 661.2290492695986 2141.357634960087 -1 -1 -1
3361 9 32 0 2805.5092802017216 664.0023457373762 2139.9676375481736 -1 -1 -1
3360 9 35 0 2806.7926103319414 664.2916551076767 2143.262403384209 -1 -1 -1
3359 9 30 0 2805.2163231119207 662.0621225268446 2144.408184776649 -1 -1 -1
3362 9 19 0 2806.5572336965583 667.3144720667489 2138.0711047210225 -1 -1 -1
3355 9 29 0 2808.9756851844136 660.0805293174701 2137.0383930844705 -1 -1 -1
3384 9 30 0 2793.361828813971 662.2780121788203 2133.936546389859 -1 -1 -1
3385 9 29 0 2793.2066247075195 665.1905460039957 2134.9056467995265 -1 -1 -1
3363 9 21 0 2802.987519507464 668.7866737629477 2136.7485404441136 -1 -1 -1
3358 9 38 0 2801.6815719630335 658.6243300037391 2140.8212449492685 -1 -1 -1
3356 9 25 1 2803.9344528294255 659.5524245684401 2136.8021481838564 -1 -1 -1
3386 9 30 0 2792.7990624175636 665.2325415790075 2138.0223518969688 -1 -1 -1
3387 9 30 0 2791.3180721888302 667.2666744037764 2139.3527036282626 -1 -1 -1
3388 9 37 0 2792.414056762943 669.5601326026957 2140.829180703433 -1 -1 -1
3364 9 25 1 2802.849157696007 671.3043164725112 2134.45636057227 -1 -1 -1
3391 9 23 1 2792.277975581588 672.0210126579047 2147.77790871767 -1 -1 -1
3389 9 29 0 2790.987330437995 670.380117367291 2143.4128955879983 -1 -1 -1
3390 9 38 0 2791.6525055923103 673.0483674187267 2144.8581511625725 -1 -1 -1
3392 9 7 -1 2792.6155344070303 668.4057725241901 2149.3488398397376 -1 -1 -1
3398 9 7 -1 2793.07206458824 654.4933071649228 2150.4755655366566 -1 -1 -1
3393 9 17 0 2795.1232497677775 666.1975654975349 2150.874858073453 -1 -1 -1