LAMMPS data file via write_data, version 23 Jun 2022, timestep = 1000

16560 atoms
40 atom types
10640 bonds
1 bond types

2572 2707 xlo xhi
577 712 ylo yhi
1400 2600 zlo zhi

Masses

1 131.2
2 57.05
3 128.2
4 101.1
5 156.2
6 71.08
7 115.1
8 129.1
9 163.2
10 99.06999999999999
11 113.2
12 128.1
13 186.2
14 147.2
15 87.08
16 137.1
17 114.1
18 97.12
19 103.1
20 113.2
21 131.2
22 57.05
23 128.2
24 101.1
25 156.2
26 71.08
27 115.1
28 129.1
29 163.2
30 99.06999999999999
31 113.2
32 128.1
33 186.2
34 147.2
35 87.08
36 137.1
37 114.1
38 97.12
39 103.1
40 113.2

Atoms # full

15389 38 31 0 2675.091781693014 633.0145781762171 1833.2435810939598 0 -2 0
15388 38 37 0 2676.4440859237675 633.4688714744403 1830.7422698090031 0 -2 0
15390 38 30 0 2671.670468091832 632.7318796488964 1833.5124845562732 0 -2 0
2141 6 31 0 2610.0654696807387 646.7626697162658 1831.148174048765 0 -2 0
2142 6 30 0 2606.930193176553 647.200981120601 1832.5057511016946 0 -2 0
2140 6 37 0 2611.0321692056327 648.270759468954 1828.8938278315377 0 -2 0
2139 6 22 0 2614.512211938016 647.9535833158611 1829.9583465129163 0 -2 0
2138 6 33 0 2615.4044160866415 648.5750682714483 1832.8049017060523 0 -2 0
2137 6 22 0 2618.931469554206 647.8725070174582 1832.4778102498954 0 -2 0
2136 6 26 0 2624.567233166358 645.5542361855179 1831.6450007460971 0 -2 0
2135 6 27 -1 2626.7795752634493 646.1524731953572 1834.8845052652275 0 -2 0
15387 38 22 0 2679.236629280528 635.1713315377435 1832.368303551793 0 -2 0
15385 38 22 0 2682.268188042444 638.152373923525 1835.1621478207285 0 -2 0
15386 38 33 0 2678.819707819445 637.4084014700044 1834.3956252228643 0 -2 0
2081 6 28 -1 2590.9665368295227 627.3912834864329 1848.9933363097537 0 -2 0
2082 6 37 0 2592.8077798519694 626.2787225861889 1845.7796662291987 0 -2 0
2083 6 27 -1 2596.77536482119 624.7988993326378 1847.930450969491 0 -2 0
2118 6 35 0 2602.2780127865362 628.7808037691045 1850.7414256641066 0 -2 0
2084 6 28 -1 2597.140899073608 621.0109340717484 1848.558526089343 0 -2 0
2117 6 30 0 2605.1962386205473 628.4375577771178 1851.0444197163608 0 -2 0
2119 6 32 0 2602.2315565038907 632.2574453802138 1851.341139739369 0 -2 0
2116 6 38 0 2605.8274490751155 630.7238730298058 1852.7954309001693 0 -2 0
2080 6 27 -1 2595.075585205755 628.6577726342267 1850.8001948170229 0 -2 0
8340 21 40 0 2608.7614634319607 633.0063411968977 1847.6363488612446 0 -1 0
8341 21 31 0 2610.315515667219 630.8761748366409 1848.3997216206653 0 -1 0
2085 6 38 0 2595.9711015149364 620.3279920270581 1852.004982602908 0 -2 0
2078 6 24 0 2595.441537786363 624.1610376938828 1854.0906223854533 0 -2 0
2079 6 28 -1 2596.625003835801 627.7309433784617 1854.1192186470846 0 -2 0
2086 6 40 0 2597.880986169621 618.4060995995426 1854.637902854045 0 -2 0
8346 21 26 0 2617.318776344902 620.0328715900149 1838.403478727821 0 -1 0
8349 21 22 0 2614.776830466832 618.3010513004425 1844.7629080311954 0 -1 0
8350 21 37 0 2615.067676571261 617.4757850010752 1851.0958756611233 0 -1 0
8347 21 22 0 2615.0108048132574 620.4809984338989 1839.9897017158962 0 -1 0
8345 21 27 -1 2617.8150959954937 623.2705814068458 1837.3615586293956 0 -1 0
8337 21 30 0 2614.673994896727 633.9839611278775 1840.7109669155627 0 -1 0
8335 21 25 1 2617.1289163591555 630.0867606587962 1842.0675307899835 0 -1 0
8342 21 36 0.5 2614.329842870078 627.6612699266182 1841.0124117760058 0 -1 0
8343 21 26 0 2614.977855477167 624.8772472358726 1841.4100939510356 0 -1 0
8344 21 38 0 2617.3217389134575 624.2130689140193 1840.7067583300886 0 -1 0
8336 21 31 0 2612.321345654687 633.6348408472727 1847.9145455749344 0 -1 0
8333 21 22 0 2619.8440342847134 628.5230422549447 1846.0134106351447 0 -1 0
8334 21 30 0 2617.575787095411 628.0825500208023 1844.872431359736 0 -1 0
8348 21 33 0 2614.550207737495 621.2136150507158 1843.9128446169198 0 -1 0
8331 21 21 0 2622.2718329940917 626.3606652537577 1854.2869775278791 0 -1 0
8332 21 25 1 2621.8799851858707 626.5315165981647 1848.535329455596 0 -1 0
8328 21 35 0 2628.0522000956544 634.6051526806484 1853.2125655623604 0 -1 0
15369 38 21 0 2664.637134360209 628.3152504013935 1849.8072681477363 0 -2 0
15392 38 30 0 2659.670928870731 630.4145074883145 1845.1397485756258 0 -2 0
15368 38 19 0 2668.0212274459714 627.9066116882503 1851.3386747259785 0 -2 0
15393 38 30 0 2658.1204437962356 632.5038318413399 1846.2837278605416 0 -2 0
15394 38 37 0 2657.8667660932865 633.1484417992508 1849.1394704789573 0 -2 0
15395 38 29 0 2655.1173433848853 633.9958382157761 1850.1555248543873 0 -2 0
15397 38 23 1 2652.4885395023475 633.3045300697261 1854.1423834670043 0 -2 0
15367 38 32 0 2671.616377333485 628.6611152317172 1852.1841137836936 0 -2 0
15364 38 38 0 2675.704951845724 629.4824326479802 1852.2248986963068 0 -2 0
15366 38 35 0 2673.2723584991877 626.1597729705608 1850.3259550728812 0 -2 0
15365 38 30 0 2675.7747834376064 627.6695596891569 1849.9030272846892 0 -2 0
15330 38 37 0 2671.3876911912334 620.2667006219688 1853.0249323046144 0 -2 0
15391 38 29 0 2671.2675660970963 634.7418924814218 1835.8039049286972 0 -2 0
15370 38 25 1 2675.682029145544 634.6610082840185 1842.2339497471578 0 -2 0
15363 38 37 0 2674.406588999272 627.1200822690945 1854.6473554925324 0 -2 0
2120 6 19 0 2600.5616273189826 635.1998719419587 1849.4285405172927 0 -2 0
2121 6 21 0 2601.627463478357 635.8316236366499 1845.8122504478952 0 -2 0
2143 6 29 0 2607.787480724268 647.4880111436797 1835.443876645472 0 -2 0
2144 6 30 0 2597.2325373092085 641.3935735973241 1845.0289430551936 0 -2 0
2145 6 30 0 2596.8961655535873 642.694240881535 1847.533366063274 0 -2 0
2146 6 37 0 2597.4251659340457 641.5605785837341 1850.1918478430132 0 -2 0
2147 6 29 0 2595.4836667000004 642.2665429084308 1852.4381299114266 0 -2 0
8338 21 28 -1 2609.5686359032347 637.3386156308494 1846.2980649304532 0 -1 0
8339 21 22 0 2609.529658111754 635.7531389162377 1852.2413962663584 0 -1 0
8326 21 38 0 2626.152250866644 638.4623352462453 1854.7046657938745 0 -1 0
8327 21 30 0 2628.104963480292 637.5107708187834 1852.7040248379978 0 -1 0
2122 6 25 1 2612.818570825772 642.5680436725031 1838.8089323461381 0 -2 0
2124 6 30 0 2614.5879714313924 646.4787807514188 1840.045099903322 0 -2 0
2123 6 22 0 2612.5240170239795 644.2677649359779 1842.5601865006658 0 -2 0
2134 6 38 0 2618.6750918461453 646.2548551959532 1836.1093191807292 0 -2 0
2133 6 26 0 2617.962331707635 648.6631433571698 1836.460868895284 0 -2 0
2131 6 31 0 2615.741619667588 650.6855531934929 1840.5875144822012 0 -2 0
2132 6 36 0.5 2618.3975139946297 649.6814085402324 1839.129449043552 0 -2 0
2125 6 25 1 2617.4118516540816 647.2164792678634 1841.9314330984319 0 -2 0
2126 6 31 0 2615.333482108852 649.0597247552765 1845.342995750815 0 -2 0
2130 6 40 0 2615.5665131200094 652.511995587039 1844.2323895296047 0 -2 0
2129 6 22 0 2613.8710755676393 652.8482787014382 1846.7512389623064 0 -2 0
2127 6 30 0 2618.58878446446 650.6422501284792 1847.569389256242 0 -2 0
2128 6 28 -1 2617.719045660543 652.7652045983948 1848.9913764106357 0 -2 0
15396 38 38 0 2654.7206696788076 635.1886200084 1852.9913375076128 0 -2 0
15382 38 38 0 2681.061415060536 638.5786308926461 1838.9352062806242 0 -2 0
15381 38 26 0 2679.717790668978 640.3132308574121 1837.6633011689025 0 -2 0
15380 38 36 0.5 2678.8638932361628 642.5815212357637 1839.2367681150636 0 -2 0
15372 38 30 0 2675.871546483698 639.0024691555479 1841.197055860707 0 -2 0
15371 38 22 0 2673.6062131505505 637.6848946124295 1844.1306610522524 0 -2 0
15373 38 25 1 2677.5170009304247 641.6505863360003 1842.732529967834 0 -2 0
15375 38 30 0 2675.6400864497355 647.5298013173469 1845.3466735878776 0 -2 0
15374 38 31 0 2673.9370394331763 643.8879298608548 1843.9692241602668 0 -2 0
15378 38 40 0 2673.7403141502773 646.0985012715514 1841.0909659889826 0 -2 0
15377 38 22 0 2671.197012905393 646.8954012024673 1842.5829417118216 0 -2 0
15379 38 31 0 2675.6994312357656 642.9801449977995 1839.332450416575 0 -2 0
15376 38 28 -1 2673.822250393759 649.5041585498354 1845.0595205795019 0 -2 0
15384 38 26 0 2688.179474003295 638.2685959488502 1836.8506204774642 0 -2 0
15383 38 27 -1 2688.802854445457 641.2209202650976 1839.4287392829744 0 -2 0
2072 6 35 0 2582.0407379260023 608.3268149972738 1869.8847610001112 0 -2 0
2071 6 1 0 2584.657020979463 606.0886777137895 1868.8157625113734 0 -2 0
2075 6 40 0 2590.6574224696164 614.8149396528324 1862.2691993296576 0 -2 0
2073 6 28 -1 2590.1126743493237 606.1286978177935 1866.2606927488885 0 -2 0
2090 6 35 0 2589.1723400265755 610.9854171843327 1873.5706412005306 0 -2 0
2074 6 29 0 2591.420836992012 609.4248598184053 1864.6775891169873 0 -2 0
2089 6 38 0 2594.569247337526 610.1159080244257 1866.928852928375 0 -2 0
8291 21 28 -1 2629.233721227456 613.9143546590291 1867.7132283846508 0 -1 0
8292 21 37 0 2631.4589820065444 612.4887040363661 1864.9097412193428 0 -1 0
8293 21 27 -1 2633.8202249176534 615.425364457017 1864.8447794250822 0 -1 0
8294 21 28 -1 2637.227182039834 615.1307763801885 1866.672932866819 0 -1 0
15323 38 40 0 2663.5182056701547 611.397960442513 1869.3763068771127 0 -2 0
15324 38 25 1 2666.97685077697 613.3921137117268 1863.1682610544526 0 -2 0
15322 38 29 0 2661.6199548204563 606.3070974041211 1871.8080765740965 0 -2 0
15321 38 28 -1 2658.8792875468043 604.0103510511532 1873.3228743658174 0 -2 0
15337 38 38 0 2664.635286435074 605.5218751415118 1874.2043748488272 0 -2 0
15335 38 28 -1 2669.22077580821 609.5434378383092 1864.36561761477 0 -2 0
15336 38 40 0 2668.6741440063975 609.8641036655033 1870.8099570138043 0 -2 0
15333 38 38 0 2671.19963303113 613.6532133874601 1859.3799649692978 0 -2 0
15334 38 40 0 2671.9006689453977 611.1222746450709 1862.0953692058054 0 -2 0
15332 38 28 -1 2672.697586128811 613.6544099400611 1855.9928569931794 0 -2 0
15352 38 32 0 2676.72685135183 612.0559895486795 1870.91267551445 0 -2 0
15349 38 30 0 2672.464279954344 614.3069058500223 1873.6447522226142 0 -2 0
2115 6 37 0 2602.897259658281 630.5333935707561 1854.9187055420443 0 -2 0
2087 6 28 -1 2596.333103487869 615.7769506456547 1856.9872712288486 0 -2 0
2088 6 40 0 2596.003516439723 615.822068347762 1863.4539645458324 0 -2 0
2076 6 25 1 2592.5211507210606 618.1637609493296 1855.9617392853586 0 -2 0
2109 6 19 0 2595.677057335796 631.0407445302301 1868.4689573482763 0 -2 0
2110 6 22 0 2596.106814197293 634.4093314598131 1866.396463650492 0 -2 0
2077 6 30 0 2594.128090450747 621.5054676444665 1856.536555015709 0 -2 0
2101 6 30 0 2597.463377350681 621.5142246910585 1866.2139870117135 0 -2 0
2102 6 24 0 2600.1426494637017 624.0069034518906 1867.212995831515 0 -2 0
2104 6 32 0 2602.1498284912013 621.4668784065896 1863.2609711949094 0 -2 0
2108 6 26 0 2597.3390801199803 628.6865702767183 1865.756716313297 0 -2 0
2112 6 25 1 2598.424099504357 633.2748430314977 1861.5660616010864 0 -2 0
2105 6 34 0 2601.1576592841907 626.0795819740908 1860.2267724923333 0 -2 0
2103 6 26 0 2602.7786290067484 621.3059977775714 1867.0027555117347 0 -2 0
2107 6 22 0 2600.7168273576153 630.0100077372927 1866.9363860018052 0 -2 0
2106 6 38 0 2602.770493346959 627.0476652093746 1865.5987154276054 0 -2 0
2113 6 29 0 2600.847612846375 633.4636056205553 1859.9086305009835 0 -2 0
2114 6 25 1 2602.1556905868865 633.8238989515331 1855.5853306798201 0 -2 0
2100 6 24 0 2598.441939896521 618.8555244342508 1868.807601094169 0 -2 0
2111 6 31 0 2598.3328826166426 634.5851477299949 1864.6070693409993 0 -2 0
8330 21 19 0 2620.3428642814615 629.1729375000879 1856.1207813483466 0 -1 0
8290 21 27 -1 2629.3091135407267 617.4036678146034 1866.1529484657835 0 -1 0
8351 21 31 0 2613.663671346771 621.161270177667 1856.8211875111392 0 -1 0
8354 21 30 0 2614.5080438303157 629.206830448835 1867.1968746596037 0 -1 0
8353 21 29 0 2613.343636457328 627.0163227222328 1863.9161361575357 0 -1 0
8352 21 30 0 2613.2276482281436 624.058891491251 1864.7271486352306 0 -1 0
8329 21 32 0 2620.5720930004863 630.9703426963246 1859.3519690268106 0 -1 0
8324 21 25 1 2620.331470988245 632.0185360879565 1862.811083843598 0 -1 0
8323 21 29 0 2621.0586411968443 631.9736115378997 1865.232361167075 0 -1 0
8355 21 30 0 2613.5500084541595 631.8562728616375 1867.5681061999744 0 -1 0
8322 21 25 1 2621.862668873876 630.0941332907986 1867.3438717020629 0 -1 0
8321 21 31 0 2621.630157130016 630.1954500305686 1869.7985306329406 0 -1 0
8319 21 19 0 2625.1315734949403 625.95331552708 1872.9925945960142 0 -1 0
8320 21 22 0 2622.4249436604437 628.5403169221848 1871.9884845453273 0 -1 0
8317 21 22 0 2627.297708476917 632.2129854369035 1872.9896802462129 0 -1 0
8356 21 37 0 2615.030497963616 634.3403267802248 1867.0918900143577 0 -1 0
8289 21 28 -1 2629.1186611230623 621.396702127845 1870.2730986766064 0 -1 0
8295 21 38 0 2636.8654388859864 616.6874608846744 1869.9986821688465 0 -1 0
8296 21 40 0 2638.8436725774363 619.8739926302003 1872.1943427521292 0 -1 0
8288 21 24 0 2631.6598211020773 619.6994963186215 1872.4984621487652 0 -1 0
8316 21 38 0 2631.0253600908986 631.7935902325821 1872.1182201140973 0 -1 0
8314 21 32 0 2635.8530533897024 628.2745909897171 1873.3071668782393 0 -1 0
8315 21 34 0 2632.061011604895 628.2493386060828 1872.3721430740113 0 -1 0
15401 38 5 1 2658.203148777538 633.0513347332774 1863.427621723406 0 -2 0
15398 38 7 -1 2651.2337480657097 632.9005247700503 1857.559780869637 0 -2 0
15402 38 3 1 2661.977618342105 632.7599907474984 1863.464315826711 0 -2 0
15403 38 1 0 2665.461862297844 633.5615527734983 1864.7160904016291 0 -2 0
15325 38 30 0 2669.911834354155 615.6354479703211 1863.822970990121 0 -2 0
15331 38 27 -1 2674.1380867100497 617.1749686169003 1855.3551242516876 0 -2 0
15353 38 34 0 2678.0919887166515 616.5485985669459 1867.8437938040913 0 -2 0
15326 38 24 0 2672.3999163923168 617.3433665802072 1861.445417069851 0 -2 0
15329 38 28 -1 2670.127689637935 622.1640801030179 1856.151454968756 0 -2 0
15328 38 27 -1 2674.278438118802 621.4405579953427 1858.1494846002354 0 -2 0
15362 38 25 1 2672.3503864362597 629.0332177321754 1856.6316065431788 0 -2 0
15327 38 28 -1 2675.0870368777237 619.9727721060526 1861.5352304234343 0 -2 0
15359 38 31 0 2672.512771520736 625.5841998007909 1865.8339486363193 0 -2 0
15361 38 29 0 2673.2097349645665 627.1576507024868 1860.6670534894472 0 -2 0
15358 38 22 0 2671.610481969222 623.7339308624165 1867.822332941428 0 -2 0
15357 38 19 0 2672.8642228468366 622.5141790572833 1871.187090993742 0 -2 0
15360 38 25 1 2672.1147070107904 625.1979840805824 1862.5695051983514 0 -2 0
15356 38 26 0 2675.664585295355 620.7271022991722 1873.1947755534936 0 -2 0
15354 38 38 0 2679.739124161289 616.7763502686967 1873.286466056955 0 -2 0
2153 6 5 1 2589.3893456784213 635.9011713741363 1867.9446984529432 0 -2 0
2152 6 3 1 2589.3833322988817 635.9893190256989 1864.0990651162551 0 -2 0
2154 6 3 1 2587.4082811458434 638.4414041749875 1870.0664728557367 0 -2 0
2155 6 1 0 2588.006837435225 642.1557474397906 1870.2512530076879 0 -2 0
2157 6 8 -1 2583.5204254275955 647.6632413654327 1872.2573218627492 0 -2 0
2156 6 7 -1 2586.7726850803374 645.3475520886559 1871.774675697048 0 -2 0
2158 6 4 0 2580.467043202855 646.0204171867281 1874.2054266248765 0 -2 0
2159 6 7 -1 2577.2781853798006 644.2899495247884 1874.2304365501207 0 -2 0
2167 6 3 1 2574.329942186855 650.2345078109705 1873.2092107362814 0 -2 0
2160 6 6 0 2575.2279265796487 643.6694551445748 1871.010945210226 0 -2 0
2161 6 15 0 2573.1675984157723 642.7218631010952 1868.0411977706528 0 -2 0
2151 6 17 0 2592.4904701494156 637.00636088678 1862.0874462169738 0 -2 0
2150 6 7 -1 2591.423487654107 638.1945232137896 1858.819489856461 0 -2 0
2148 6 38 0 2596.1056310620756 641.6007387969223 1855.4027211970615 0 -2 0
2149 6 23 1 2593.5320959938153 640.0008062210744 1856.225061673707 0 -2 0
8325 21 37 0 2627.5345609664555 636.2941544366652 1856.479492759664 0 -1 0
9936 24 1 0 2611.6935527329674 640.5857364851908 1873.7130522753025 0 0 0
8357 21 29 0 2614.6080473984853 636.632279228352 1869.0728444953882 0 -1 0
8358 21 38 0 2615.667423229058 639.4837752354459 1868.5052724895636 0 -1 0
8359 21 23 1 2617.3297383650925 640.0462657970726 1871.112315997071 0 -1 0
8360 21 7 -1 2619.3288050579076 642.9006844559586 1872.9593364442494 0 -1 0
8361 21 17 0 2622.6770347811403 643.7729714065671 1871.3396351147915 0 -1 0
8362 21 3 1 2626.065342580657 644.6316662433377 1869.666365202471 0 -1 0
8363 21 5 1 2628.7780657792327 647.0577653875314 1871.4494209697414 0 -1 0
8364 21 3 1 2631.9798621789328 647.1851807324264 1869.0196223324074 0 -1 0
8366 21 7 -1 2635.0122835326847 648.0960788871444 1874.4186488555085 0 -1 0
8365 21 1 0 2635.4845409641507 647.0040071075517 1870.6972822623206 0 -1 0
15399 38 17 0 2652.348818146824 634.8591726792713 1860.6597626659204 0 -2 0
15400 38 3 1 2655.6886397490584 634.9841262410232 1862.1997790883547 0 -2 0
15405 38 8 -1 2664.842408278076 640.719940236352 1866.3643556325815 0 -2 0
15404 38 7 -1 2665.725734267923 637.0454513742447 1866.107009203673 0 -2 0
15408 38 6 0 2658.842728169186 644.6470831540864 1873.1290944535408 0 -2 0
15407 38 7 -1 2662.297001699044 643.0681421223844 1872.2303067555313 0 -2 0
15406 38 4 0 2662.1617409033242 640.3836611841266 1868.9724422634831 0 -2 0
2164 6 10 0 2701.5451092535236 645.7356785410655 1867.710369439936 -1 -2 0
2163 6 6 0 2702.3027793475367 642.0542449784106 1868.1126547294475 -1 -2 0
2162 6 15 0 2705.2402932741156 640.0867765253029 1867.0443382554274 -1 -2 0
2166 6 10 0 2706.0326159323304 648.3490808916549 1873.1584382912422 -1 -2 0
2165 6 3 1 2703.5570969428477 646.9603370594392 1870.809750196518 -1 -2 0
2094 6 22 0 2582.6523343011863 610.2851615116432 1877.061765050603 0 -2 0
2095 6 24 0 2584.8597664527715 613.9950788415445 1877.5198490490973 0 -2 0
2093 6 27 -1 2583.1728584475486 608.9999537090292 1880.6891133590825 0 -2 0
2092 6 27 -1 2587.196916982312 607.3199043067698 1879.566526093827 0 -2 0
2091 6 28 -1 2588.792236481296 610.1868245267426 1878.0379067572828 0 -2 0
15319 38 1 0 2655.5282952503258 611.7462010013974 1874.7620191494825 0 -2 0
15320 38 35 0 2652.5708185881285 609.7385505456587 1876.5717152315035 0 -2 0
15342 38 22 0 2653.7071302395593 611.341514043158 1883.7726709883182 0 -2 0
15341 38 27 -1 2653.425128234078 610.0334665124127 1887.4179629535488 0 -2 0
15344 38 30 0 2662.196387808849 615.3703726327403 1882.3004523433294 0 -2 0
15338 38 35 0 2659.962731798659 608.9029574850541 1880.5895907067888 0 -2 0
15339 38 28 -1 2659.069101091487 608.4571880991309 1885.032877343405 0 -2 0
15340 38 27 -1 2656.2728909923435 606.6724391880039 1886.4806591647493 0 -2 0
15343 38 24 0 2657.3489164202183 613.6341950802814 1884.3393267260499 0 -2 0
15348 38 24 0 2672.0024272119376 611.5477728266148 1876.2763255620223 0 -2 0
15351 38 26 0 2677.0519901030366 611.6994809461723 1874.6792788885718 0 -2 0
15350 38 24 0 2675.943234526694 615.3125029229983 1874.7715303351881 0 -2 0
2096 6 30 0 2588.2699864850497 617.7596429612405 1875.313482933411 0 -2 0
2097 6 31 0 2590.869143634735 619.6139774328003 1877.2478969260815 0 -2 0
2098 6 31 0 2592.268705692061 623.7633586574669 1875.655785289187 0 -2 0
2099 6 35 0 2595.8285228924997 622.7882577881428 1876.491619495296 0 -2 0
8318 21 26 0 2626.9488896573307 628.8708643047693 1874.7976623753077 0 -1 0
9470 23 8 -1 2615.68134187251 630.8662197066695 1879.8079271629767 0 0 0
9469 23 5 1 2617.2801992157706 633.506742262164 1882.5917926118736 0 0 0
9468 23 12 0 2620.607490423378 634.5973482642979 1883.4150724727692 0 0 0
9489 23 6 0 2622.9086335543116 621.5620055298638 1882.386538684843 0 0 0
9492 23 2 0 2621.286636736861 628.5571638422872 1876.8401907724835 0 0 0
9491 23 20 0 2620.147891008235 625.0289702714127 1877.563132989399 0 0 0
9493 23 13 0 2622.410863474652 632.4978259272383 1876.854191499026 0 0 0
9490 23 6 0 2620.0954064537245 624.0095740427801 1881.4844783323188 0 0 0
9480 23 17 0 2616.7488775699803 631.3105009663706 1889.8385980221772 0 0 0
9460 23 17 0 2624.4570994649634 633.7734474216597 1893.462188504796 0 0 0
9488 23 2 0 2623.143820828433 620.227704341018 1886.0636629413243 0 0 0
9487 23 15 0 2622.963453774663 616.3960663353379 1886.8817862252029 0 0 0
9482 23 9 0 2616.4938535244387 624.9014393226299 1888.533831386572 0 0 0
9481 23 15 0 2615.8181382632174 628.4132830538308 1887.5853173478715 0 0 0
9471 23 18 0 2611.7171194917314 631.7367684746533 1880.3638497218851 0 0 0
9479 23 17 0 2614.4210948211876 633.9302798265265 1890.1566423705867 0 0 0
9484 23 2 0 2621.755888544444 623.2314401292444 1890.9602102217225 0 0 0
9483 23 15 0 2620.3733310458597 625.6764042050866 1888.3462600498472 0 0 0
9485 23 15 0 2619.6614874759475 619.9089157123602 1890.3915303689907 0 0 0
9486 23 17 0 2622.031636415752 617.1078291586763 1890.5170838376964 0 0 0
8286 21 25 1 2635.2600070428734 617.6345167009156 1878.095178380892 0 -1 0
8282 21 35 0 2638.0525656301493 617.207801030385 1888.0226838118708 0 -1 0
8281 21 1 0 2634.161238345297 616.6791004427607 1888.6778114031165 0 -1 0
8313 21 26 0 2635.8739235266016 631.3243505270552 1875.523763900135 0 -1 0
8312 21 24 0 2632.2198110184668 630.4944658118726 1876.0971713417641 0 -1 0
8297 21 28 -1 2639.0699154284644 620.1833812418867 1877.5123790311445 0 -1 0
8284 21 29 0 2638.8791411735065 619.888620494263 1883.4587809874822 0 -1 0
8285 21 40 0 2635.7872728820853 618.729479325481 1881.5826655929604 0 -1 0
8287 21 30 0 2633.0609218542427 619.9352987102151 1876.081149654639 0 -1 0
8283 21 28 -1 2640.938791117435 619.3417361616135 1886.7303308962355 0 -1 0
8299 21 38 0 2639.5466183150993 623.6917903112053 1882.7839527811004 0 -1 0
8298 21 40 0 2637.773914290028 623.0389421749563 1879.5649902830353 0 -1 0
8308 21 31 0 2630.62699738812 629.4203283034989 1881.9666668040315 0 -1 0
8309 21 35 0 2633.1060334298486 632.0370553274812 1880.802414089192 0 -1 0
8307 21 31 0 2632.9753981531294 628.8096174053148 1884.8270313872413 0 -1 0
8311 21 30 0 2633.207738826724 627.4249873232845 1878.1073429918831 0 -1 0
8310 21 24 0 2635.704813119576 629.2262572047993 1880.4088327011787 0 -1 0
15418 38 10 0 2645.6201283504197 629.5859080483372 1880.6434384338665 0 -2 0
15419 38 12 0 2647.451830560579 626.5884446217507 1882.0433780480198 0 -2 0
8306 21 30 0 2633.5517861839335 625.2835065463028 1885.8834565343777 0 -1 0
8300 21 35 0 2637.8248804691502 623.7589323465221 1886.05436346643 0 -1 0
8301 21 28 -1 2638.393246193139 625.9520958119094 1889.0544947849887 0 -1 0
8305 21 24 0 2633.228750691662 624.058802563958 1889.4430887835033 0 -1 0
8302 21 27 -1 2639.9459341363786 625.2940529948843 1892.278350995895 0 -1 0
8304 21 22 0 2635.7855060726815 621.9389604198365 1891.313087815905 0 -1 0
8303 21 27 -1 2636.746715079384 624.5468388378603 1893.9998715821894 0 -1 0
15420 38 3 1 2646.855315886988 625.8019593128305 1885.6220882790697 0 -2 0
15421 38 4 0 2646.169819527661 628.384803390553 1888.5170836567834 0 -2 0
15417 38 6 0 2642.1368684123727 630.326407858165 1882.0134939356572 0 -2 0
15416 38 5 1 2640.654317890879 633.4050104585504 1883.9715303784737 0 -2 0
15422 38 15 0 2644.5438669893306 629.7734512081136 1891.8762523916828 0 -2 0
15345 38 31 0 2665.2715730244427 615.8642944323647 1884.3567648193161 0 -2 0
15346 38 31 0 2668.4852479471874 618.8769834325308 1882.83871104082 0 -2 0
15355 38 22 0 2679.219162588554 620.3770885663333 1874.5324240799378 0 -2 0
15347 38 35 0 2671.161279896534 616.3944159165316 1883.837335770451 0 -2 0
2168 6 5 1 2576.260683378963 653.1800562277888 1874.5649332742432 0 -2 0
2169 6 6 0 2578.9617284709584 652.7592298972652 1876.983628673704 0 -2 0
2170 6 10 0 2582.5356395173667 651.9243334519412 1878.4399479539343 0 -2 0
2196 6 4 0 2578.4374367970154 648.9313107869208 1892.9776086041488 0 -2 0
2171 6 12 0 2584.320084150661 653.7299062689546 1881.1186707254644 0 -2 0
2195 6 15 0 2575.187136307008 650.9287072905704 1892.6972840445678 0 -2 0
9473 23 12 0 2609.3213723381164 639.0781274115262 1881.5432216410845 0 0 0
9474 23 6 0 2609.655532826186 642.6364922121114 1881.672917709414 0 0 0
13721 34 22 0 2605.516212682718 649.5628837740252 1893.9474890960048 0 0 0
13720 34 28 -1 2607.411117583462 648.6958998791689 1890.936169184599 0 0 0
9522 23 1 0 2604.3804487440952 641.3850017364681 1889.2044148460561 0 0 0
13722 34 40 0 2606.8604181018654 652.303625914293 1893.7313159958271 0 0 0
13718 34 31 0 2604.411171728618 652.5569792656414 1891.063633956971 0 0 0
13719 34 30 0 2606.890670292188 650.9558223111896 1889.5497027486163 0 0 0
9521 23 2 0 2604.3123745547796 641.8595172984659 1893.11003310858 0 0 0
9519 23 2 0 2609.892052788973 644.0578756881345 1893.6753245144466 0 0 0
9935 24 2 0 2614.7294229503127 640.3512140589936 1875.9241597604878 0 0 0
9497 23 15 0 2627.934802659729 642.6087536303228 1875.6090062101594 0 0 0
9496 23 6 0 2626.6863879609823 638.8233360902223 1876.4322951370882 0 0 0
9495 23 15 0 2622.948802892737 638.5680670255239 1875.3355659629292 0 0 0
9494 23 2 0 2621.6917530428254 636.2685143816162 1878.0561328388726 0 0 0
9467 23 1 0 2624.0476069894 635.6137100701601 1883.6547052202889 0 0 0
9466 23 17 0 2625.683068552418 638.4859121896926 1881.6838547629532 0 -1 0
9461 23 17 0 2622.329403017485 635.2386470203519 1890.7071006602994 0 0 0
9465 23 2 0 2622.83402033374 641.3880849757193 1881.305181585835 0 -1 0
9475 23 14 0 2612.1197184560638 644.533501202183 1884.1027786664743 0 0 0
9931 24 15 0 2621.464030178653 649.5576825284169 1881.2184277452077 0 0 0
9462 23 12 0 2621.427072103941 638.8364293963082 1889.0783074532403 0 -1 0
9934 24 13 0 2616.790959165097 639.6845514905856 1879.1088623533403 0 0 0
9933 24 2 0 2617.5809406541794 643.4171814953809 1879.9968471887016 0 0 0
9932 24 15 0 2618.9752517208067 646.6625180281862 1880.8177406227123 0 0 0
9472 23 17 0 2610.636396674648 635.3053613639112 1881.6194351697695 0 0 0
9929 24 15 0 2621.8979047982457 652.863933160193 1886.4248178586508 0 0 0
9930 24 3 1 2623.366552506202 650.4687709392633 1884.2252239899315 0 0 0
9464 23 12 0 2622.818254923952 643.2941366674769 1884.7982309090178 0 -1 0
9928 24 7 -1 2618.0536537892863 652.0453193603313 1886.527605039307 0 0 0
9463 23 17 0 2623.8238524177427 641.1251454606572 1887.5374244681434 0 -1 0
9476 23 2 0 2612.412286802887 641.4784546058137 1885.9314035861141 0 0 0
9477 23 15 0 2614.469737350055 638.4327815331698 1885.430504878644 0 0 0
9478 23 2 0 2616.0356601436592 636.9189247549882 1888.4133272004271 0 0 0
9517 23 15 0 2614.388362506174 642.0227947418606 1892.8631979591391 0 0 0
9516 23 3 1 2616.6457037562386 644.7636394257896 1890.7434868407586 0 0 0
9515 23 15 0 2618.8452415147667 647.0194212479693 1892.8388194129946 0 0 0
9514 23 7 -1 2622.1527380756684 646.2157403491844 1893.2228404010189 0 0 0
9926 24 15 0 2612.1279304304394 652.3088052576696 1888.181161068419 0 0 0
9927 24 1 0 2615.4256797727367 650.8703999477425 1889.3393468023044 0 0 0
9507 23 2 0 2626.3441155111923 649.1164040204569 1889.2333505515326 0 0 0
9501 23 15 0 2629.8098335791797 644.8767351918418 1883.7988542407677 0 0 0
9506 23 17 0 2627.6817888784585 645.7741570606113 1889.5984020785454 0 0 0
9508 23 2 0 2627.8689566154435 650.1719771336624 1892.5453136188257 0 0 0
9518 23 15 0 2611.0695463273164 641.8781704744327 1890.731551283688 0 0 0
9498 23 17 0 2631.874955394945 642.8346884734049 1876.1365789893036 0 0 0
9499 23 6 0 2634.542530016356 643.8147665689517 1878.5154038713047 0 0 0
15413 38 3 1 2646.6725934174706 641.9440259086997 1882.7518346902357 0 -2 0
9500 23 2 0 2632.6176366269456 645.6336011521927 1881.190319458447 0 0 0
8367 21 8 -1 2637.5894820684593 650.4392952634662 1875.9313214544147 0 -1 0
15415 38 3 1 2641.733261852458 636.8806717595121 1883.2290613984483 0 -2 0
15414 38 10 0 2643.506155422603 640.2022760113755 1883.0215665777744 0 -2 0
9502 23 2 0 2630.8306211130907 641.1105853983374 1883.6263691972508 0 0 0
9503 23 15 0 2632.8179230351525 639.0534280388762 1886.0207798050933 0 0 0
9504 23 2 0 2633.0099373393 640.3247354465684 1889.5982536984475 0 0 0
9505 23 14 0 2630.5497245970782 643.1549921165582 1889.6583202789466 0 0 0
8379 21 6 0 2635.4570152352653 648.6479456522603 1890.011215972659 0 -1 0
8380 21 10 0 2638.6515948905694 647.858747231506 1892.0954815258615 0 -1 0
8368 21 4 0 2639.436129128363 649.1317392678166 1879.1704031805018 0 -1 0
8369 21 7 -1 2637.936073387188 651.3392962021302 1881.850269633262 0 -1 0
8377 21 3 1 2631.0047586450764 652.3449568653209 1887.6194811983903 0 -1 0
8378 21 5 1 2633.2518458938434 649.286804630716 1886.9955593822267 0 -1 0
15409 38 15 0 2658.7470187862077 643.8281036903911 1877.1501972583121 0 -2 0
15412 38 10 0 2650.299026417284 641.0084744563061 1881.9739786609289 0 -2 0
15411 38 6 0 2653.09683650839 642.7915012980482 1880.3739793039224 0 -2 0
15410 38 15 0 2655.742948248985 641.5226791571264 1877.8932808974553 0 -2 0
500 2 7 -1 2672.1750853988647 647.5912188684806 1892.2333227773013 -1 0 0
501 2 8 -1 2670.0281103741067 644.8148553222751 1894.1069915216567 -1 0 0
499 2 1 0 2674.5516000897906 649.6705465498837 1890.3758766885737 -1 0 0
498 2 3 1 2677.9225886150557 649.1374505877445 1891.7043367784029 -1 0 0
2183 6 13 0 2701.3169901197844 649.957094412383 1893.278719943273 -1 -2 0
2186 6 4 0 2695.2971989573393 644.548777174671 1893.5986294858353 -1 -2 0
2182 6 18 0 2699.6715951180577 653.2412561588629 1892.5973233165396 -1 -2 0
2185 6 4 0 2699.098601232745 643.6013166422472 1893.8486577173105 -1 -2 0
2172 6 3 1 2585.8302446733705 656.9831994294437 1880.0811828357764 0 -2 0
2173 6 4 0 2583.683246097945 660.3254147618097 1880.3740730758075 0 -2 0
2174 6 15 0 2580.68573038513 662.0742420125025 1881.7460340671942 0 -2 0
2175 6 7 -1 2579.0332715580244 658.8724648000251 1883.5754218996096 0 -2 0
2176 6 11 0 2580.0164625084035 659.3785818014295 1887.2708554738128 0 -2 0
13709 34 30 0 2584.6046821020727 657.4687767533251 1893.0142453908368 0 0 0
13708 34 38 0 2586.0981332865567 654.9628362954479 1893.483143132545 0 0 0
2177 6 20 0 2577.6142945883366 657.2440898833855 1889.4318800500132 0 -2 0
2178 6 10 0 2573.981875392281 658.177914461524 1888.5442459678623 0 -2 0
9925 24 15 0 2610.240053465621 654.4925775532911 1885.73007777733 0 0 0
13712 34 19 0 2591.368055165188 658.2867436118628 1893.1631154370582 0 0 0