LAMMPS data file via write_data, version 29 Oct 2020, timestep = 100000

13500 atoms
40 atom types
13400 bonds
1 bond types

0.0 140.0 xlo xhi
0.0 140.0 ylo yhi
-360.0 360.0 zlo zhi

Masses

1 131.199997
2 57.0499992
3 128.199997
4 101.0999999
5 156.1999999
6 71.08000180000001
7 115.099998
8 129.100006
9 163.1999999
10 99.0699997
11 113.199997
12 128.100006
13 186.199997
14 147.199997
15 87.080001
16 137.100006
17 114.099998
18 97.1200027
19 103.099998
20 113.199997
21 131.199997
22 57.0499992
23 128.199997
24 101.099998
25 156.199997
26 71.08000180000001
27 115.099998
28 129.100006
29 163.199997
30 99.0699997
31 113.199997
32 128.100006
33 186.199997
34 147.199997
35 87.08000180000001
36 137.100006
37 114.099998
38 97.1200027
39 103.099998
40 113.199997

Bond Coeffs # harmonic

1 9.6 3.81

Atoms # full

1636 13 17 0.0 14.10289396816927 45.23604249669339 -98.14412035211572 0 0 0
1637 13 14 0.0 12.729403163872156 47.43320468408749 -95.63517197024885 0 0 0
1634 13 15 0.0 14.589487572892907 45.78818951294998 -104.32914678177784 0 0 0
1642 13 2 0.0 6.064264352562745 41.6385164825691 -95.12109659032652 0 0 0
1635 13 2 0.0 14.835154213675187 47.71295871260325 -101.15067062870077 0 0 0
1632 13 7 -1.0 13.651031393035694 52.04689985622717 -105.50717282190007 0 0 0
1631 13 5 1.0 16.02356446050449 53.92328479443294 -103.94878091754933 0 0 0
1633 13 7 -1.0 14.134873105042477 48.33921974719865 -106.59645504047546 0 0 0
1630 13 7 -1.0 16.84619435341296 56.32160975848886 -100.87550087393942 0 0 0
1621 13 1 0.0 21.780799290708256 58.26896740596957 -105.43691003160572 0 0 0
1624 13 6 0.0 22.974023952830585 51.58814472308847 -99.06656860812387 0 0 0
1622 13 6 0.0 23.139823303349722 57.44763243871704 -101.66579290127126 0 0 0
1623 13 15 0.0 24.987060912249614 54.01357521540448 -101.429321277582 0 0 0
1629 13 5 1.0 16.475963871582678 56.03786641200174 -97.18813060773539 0 0 0
1625 13 7 -1.0 24.08549866410465 53.352464139117565 -95.67950946272407 0 0 0
2436 19 15 0.0 1.772045244184597 20.243864572433292 -78.02086538487276 1 0 0
2433 19 15 0.0 3.8498502706089166 13.463643610448559 -78.9838997677864 1 0 0
2431 19 1 0.0 0.8130474314579351 17.13736251438909 -83.47773457323234 1 0 0
2432 19 6 0.0 0.9531514615720553 14.347540211273484 -81.25106351604904 1 0 0
2435 19 7 -1.0 5.243319453332038 19.17918016866169 -77.79872013789813 1 0 0
2434 19 6 0.0 6.27692818956351 15.348575875608043 -76.87925636068343 1 0 0
2437 19 15 0.0 2.0291575357988703 23.62453780946542 -76.22016541636611 1 0 0
1656 13 17 0.0 28.261023412781004 33.609427283259514 -76.30638271737061 0 0 0
1658 13 15 0.0 31.67532781648616 31.814565128310054 -81.00486511931797 0 0 0
1649 13 7 -1.0 18.98877491124179 34.01644970563906 -82.74047443040163 0 0 0
2438 19 12 0.0 0.5889600844983165 26.510802919265494 -77.982548982866 1 0 0
1657 13 14 0.0 31.628382208176465 34.66867153221994 -78.46612708259033 0 0 0
1647 13 2 0.0 13.311140479534439 35.47468189599292 -83.1469193120002 0 0 0
1645 13 14 0.0 8.64338680042848 35.80006632609117 -88.42309622235493 0 0 0
1655 13 2 0.0 26.077266879505522 35.9749926569601 -74.2638301157269 0 0 0
1643 13 2 0.0 4.914341323273478 37.92527906501171 -93.71706434836844 0 0 0
1644 13 2 0.0 7.176562772074351 38.79468165987466 -90.55715326095776 0 0 0
1641 13 5 1.0 4.86667848669683 44.191726860060946 -92.63026033214669 0 0 0
1650 13 17 0.0 19.654365767229493 35.58945226665661 -79.36352542975524 0 0 0
1669 13 7 -1.0 31.522479300958075 47.359813451149904 -74.56929142508059 0 0 0
1648 13 17 0.0 16.205164040166927 34.55793960375739 -85.35854267634556 0 0 0
1646 13 2 0.0 10.403051638741411 36.700162484069324 -85.0764431418414 0 0 0
1651 13 14 0.0 20.626754366149836 38.96584532946588 -77.65292554752764 0 0 0
1638 13 2 0.0 9.85926837501406 48.587130409406385 -93.1454902337392 0 0 0
1639 13 7 -1.0 7.006594976047363 49.77475676170447 -91.52178959305226 0 0 0
1640 13 2 0.0 3.86264163511764 47.79482515956305 -92.74057999621832 0 0 0
1628 13 12 0.0 15.628826078543158 54.30749257079731 -93.45725290404289 0 0 0
1626 13 15 0.0 21.73699469618695 55.621459517373076 -93.63988999670087 0 0 0
1627 13 15 0.0 18.909686268468455 54.83116906561778 -91.49425070213974 0 0 0
965 8 2 0.0 16.604745987991745 2.110547820123018 -70.34205225344274 1 0 0
967 8 2 0.0 18.68822701089794 6.422585283578493 -67.51320265954612 1 0 0
966 8 5 1.0 20.08316026301613 2.8868866142889686 -68.3803621832518 1 0 0
968 8 2 0.0 14.791629660205992 7.457165729201223 -69.06147928957705 1 0 0
959 8 15 0.0 18.782536365269703 6.579941968745564 -58.86073576767739 1 0 0
964 8 7 -1.0 14.327743453547722 2.4205342673014068 -66.77613051364744 1 0 0
969 8 2 0.0 15.580717754889736 11.129813932574544 -68.27612450527928 1 0 0
963 8 2 0.0 11.314514711952711 0.9256573406162628 -64.52999568663259 1 0 0
960 8 2 0.0 18.562744419169164 3.7863003753019995 -61.222134840612284 1 0 0
958 8 7 -1.0 19.58223021946086 9.533417109774774 -55.87706895633938 1 0 0
953 8 12 0.0 9.745830145947549 18.81492807756403 -55.590599304327284 1 0 0
976 8 14 0.0 12.825037937157905 7.763059361318491 -63.15989033579534 1 0 0
975 8 17 0.0 14.155158178031373 11.087389878429121 -62.4399762453254 1 0 0
974 8 7 -1.0 12.21466644200201 14.650420834228816 -61.46295287328175 1 0 0
972 8 2 0.0 9.028494680349871 17.40347903836709 -66.82495979177233 1 0 0
971 8 2 0.0 12.612792028413006 17.172272601343707 -68.35160919817224 1 0 0
970 8 14 0.0 14.71124638445846 14.337317261366715 -70.56514043741507 1 0 0
973 8 17 0.0 9.539547477711348 14.736156195088896 -64.05400472940792 1 0 0
977 8 2 0.0 9.350813603910103 7.259157358090454 -62.304523901298936 1 0 0
980 8 2 0.0 5.321443390297283 4.8162498614830636 -56.5499053718526 1 0 0
978 8 5 1.0 6.1141205748180765 8.246658206770084 -61.00957405577353 1 0 0
981 8 17 0.0 7.623999390396566 1.8486659331889437 -55.26239974117491 1 0 0
952 8 15 0.0 6.699812091085311 18.99435653252517 -57.73128508541096 1 0 0
951 8 15 0.0 2.6323119321853827 19.858274361739806 -57.15407690808077 1 0 0
2724 21 2 0.0 25.645732772775656 17.52205908315148 -64.26431586945566 0 0 0
2725 21 14 0.0 29.017788602061025 19.78104337627399 -64.97830646752752 0 0 0
979 8 2 0.0 7.190363594690193 8.213765297178888 -57.305459665558125 1 0 0
2721 21 5 1.0 29.805068956596855 11.974221123570505 -56.76921377448798 0 0 0
2722 21 2 0.0 27.635973081631846 11.956918477890905 -59.98031653662663 0 0 0
2723 21 2 0.0 27.120833360095602 15.170086962185875 -61.66344075370022 0 0 0
2728 21 17 0.0 26.69082448184445 20.887216008578832 -58.41758063276631 0 0 0
2730 21 17 0.0 20.81492753980992 18.629389049912223 -59.195653072864296 0 0 0
2729 21 7 -1.0 23.107568848324657 20.70600268739685 -57.50917682389575 0 0 0
2726 21 2 0.0 28.630391963633176 23.19634577372148 -63.827513183793975 0 0 0
2727 21 2 0.0 25.850464122355923 23.29098608581972 -61.324213625121104 0 0 0
962 8 14 0.0 12.800343456949227 0.8534693219368812 -60.94205396486031 1 0 0
950 8 7 -1.0 3.167303440965738 23.307885807232953 -58.3310429862231 1 0 0
2582 20 14 0.0 1.0883547703312635 9.124349939023288 -54.47652092252386 0 0 0
2731 21 14 0.0 17.27305122771061 17.255027681826103 -57.91744764979242 0 0 0
961 8 17 0.0 16.657713990615225 0.17595534314384387 -61.41499319199723 1 0 0
1487 12 6 0.0 20.481668865338463 31.283593588879985 -64.53606391063829 0 0 0
1486 12 1 0.0 18.511092664503547 28.054463462201614 -65.51270031360585 0 0 0
1488 12 15 0.0 20.873597779253128 33.21605970530462 -61.308801779780985 0 0 0
949 8 6 0.0 2.398215695394655 25.463337953380684 -54.90426882347867 1 0 0
6773 51 2 0.0 0.8083228834693786 47.108289743175874 -59.56431587860921 0 0 0
1654 13 2 0.0 24.731407186325516 37.476295129471005 -70.66642760894837 0 0 0
1653 13 5 1.0 21.8691575595587 39.90564692592779 -70.78489363571944 0 0 0
6751 51 1 0.0 15.400153267872026 44.76284875461238 -57.11638701236184 0 0 0
1490 12 7 -1.0 20.194698374829997 38.07986994358462 -57.568443230260414 0 0 0
1491 12 15 0.0 23.860381039240256 39.91190834800748 -58.840419777906504 0 0 0
1492 12 15 0.0 27.27764628963228 39.74568333655768 -59.517310646693005 0 0 0
1493 12 12 0.0 29.822352128741446 42.54763835038354 -58.87648526938327 0 0 0
1494 12 5 1.0 30.0335605256247 45.13638747667089 -56.54483449110729 0 0 0
1671 13 2 0.0 30.886885546160556 47.22579862853973 -67.86344129344238 0 0 0
1673 13 2 0.0 29.615921136106348 46.43891468862537 -63.20682618281754 0 0 0
1670 13 2 0.0 29.41256858196578 47.18088753595864 -71.37818130933047 0 0 0
1489 12 6 0.0 22.129465754522787 34.616425852298576 -57.989620187253884 0 0 0
1652 13 2 0.0 19.600721613492095 38.84691375902713 -73.9889829532381 0 0 0
6774 51 2 0.0 4.1910336981683045 45.35535619116768 -58.37588586610249 0 0 0
6770 51 2 0.0 0.2190263071197335 56.43981328388174 -55.22905009280578 0 0 0
1676 13 2 0.0 29.357530183532777 51.36238138751929 -57.59834255953961 0 0 0
1675 13 7 -1.0 26.547544803320005 50.77994914004203 -59.93251562101549 0 0 0
1508 12 2 0.0 11.964871973600511 55.58725119823631 -55.171591511388804 0 0 0
1506 12 5 1.0 16.703231915914255 54.94152987159925 -61.49204001763035 0 0 0
1507 12 2 0.0 14.408220311186234 55.53362636047305 -58.45196622194469 0 0 0
1503 12 2 0.0 22.102758884470244 61.103453050985976 -58.455857787075594 0 0 0
1505 12 2 0.0 19.30874158659306 57.58591889245448 -62.02613990567056 0 0 0
1504 12 7 -1.0 21.889938705228165 60.432651081850516 -62.23350781889682 0 0 0
1502 12 14 0.0 22.807303839969197 58.618260592553234 -56.189922396594284 0 0 0
1674 13 2 0.0 26.14734816381301 47.5670527169015 -61.94632428313767 0 0 0
1501 12 17 0.0 25.22579245340014 56.51676085450456 -58.03864209509902 0 0 0
1499 12 15 0.0 31.89385520272017 58.4115781965683 -55.763309616001315 0 0 0
1500 12 2 0.0 28.57820293573486 58.475202031243896 -57.64209693392018 0 0 0
3794 29 15 0.0 5.790513025646738 0.8342346200123917 -48.56443464895348 1 0 0
956 8 5 1.0 14.680614766328093 11.969198922425315 -51.6128947872704 1 0 0
955 8 7 -1.0 13.630503859133517 15.708309815059929 -50.618521213205476 1 0 0
954 8 5 1.0 11.997708425871712 18.267487964982365 -52.542064033396684 1 0 0
989 8 2 0.0 10.343280718407922 0.4702964322783062 -39.82235699753059 1 0 0
983 8 15 0.0 13.103612062970093 2.962495441454191 -51.38926257229578 1 0 0
982 8 14 0.0 10.310034933325003 4.039548324568125 -53.82556879255517 1 0 0
1390 11 5 1.0 19.19361628858829 0.4228168866099181 -43.80425111542951 0 0 0
984 8 7 -1.0 11.81503644997846 0.466016760374928 -49.12793163919987 1 0 0
1392 11 2 0.0 26.01849721589669 3.5310432374639444 -43.18263766514228 0 0 0
2720 21 2 0.0 31.431936620288678 9.646204766240785 -54.06685736519887 0 0 0
1391 11 2 0.0 22.682871271787757 2.8373026781716 -44.17240689401267 0 0 0
996 8 2 0.0 5.821692714571028 7.8421879753069454 -37.29824867301412 1 0 0
995 8 2 0.0 6.547064419207683 10.228629389824086 -40.278252616562504 1 0 0
1394 11 2 0.0 31.35779624604195 1.3100250894096401 -38.77781277597304 0 0 0
991 8 15 0.0 7.646945617125905 2.3755358691788637 -43.476411807719295 1 0 0
993 8 2 0.0 9.396557354206022 9.59427338529318 -45.14189061992004 1 0 0
957 8 7 -1.0 17.166520381294518 9.560174763272034 -52.668157126144685 1 0 0
5275 40 7 -1.0 13.158049731531575 0.05107399600708368 -35.08366833314042 0 0 0
3795 29 2 0.0 4.082892335172155 4.115558389766072 -49.04984683926552 1 0 0
2584 20 7 -1.0 4.509443260380805 13.9110963113252 -50.127158429310086 0 0 0
2587 20 2 0.0 11.622545987793881 14.917390187603036 -43.94357123189897 0 0 0
2586 20 5 1.0 9.648842999895187 17.561859631586685 -46.1843087106305 0 0 0
2589 20 2 0.0 14.010490045564016 10.239052580452165 -40.65080356513816 0 0 0
2733 21 5 1.0 20.84678727204928 17.897783773842562 -51.55951147035271 0 0 0
2732 21 2 0.0 17.857142851842195 18.139545757983928 -53.929361355816326 0 0 0
5281 40 17 0.0 19.446149741524565 9.42494560858508 -36.63917183943797 0 0 0
5279 40 15 0.0 22.19748325548367 4.700477413058862 -37.65604581948294 0 0 0
5280 40 2 0.0 18.855003730063515 5.901743584433331 -37.81990789609986 0 0 0
5282 40 14 0.0 17.752159352992958 12.446551234535754 -34.959534883572275 0 0 0
2734 21 2 0.0 22.06684253883804 19.910080154830304 -48.46314601202549 0 0 0
2588 20 2 0.0 12.079061626642828 13.534660982633547 -40.20862584995291 0 0 0
3807 29 2 0.0 5.277945476955276 22.72543285185852 -45.22006586846442 1 0 0
2585 20 2 0.0 6.947794751270023 16.673298185765344 -48.92077059238512 0 0 0
3811 29 14 0.0 9.839118758165455 23.040928316497435 -37.30004322753808 1 0 0
2590 20 14 0.0 13.009044294936452 6.335918974623209 -40.188101323505784 0 0 0
2735 21 2 0.0 20.301628688271546 20.35471160775177 -44.770425103089586 0 0 0
2591 20 2 0.0 12.114148474521981 5.630596273211988 -36.573234909768615 0 0 0
2737 21 14 0.0 16.087631830618182 18.12647241496772 -39.205032865999925 0 0 0
2738 21 15 0.0 14.995830463109693 18.78531224237789 -35.48877528299197 0 0 0
2736 21 17 0.0 17.62011773984115 18.80677120167556 -42.80001483104707 0 0 0
992 8 5 1.0 7.802111353760463 6.235472976184807 -44.93334951072928 1 0 0
1393 11 14 0.0 27.914054072405573 2.4504940917579203 -39.89914932285343 0 0 0
994 8 7 -1.0 6.757302406833541 12.242676891836869 -43.46510080507282 1 0 0
2715 21 2 0.0 24.895180370822928 10.913816648191384 -44.72480620333654 0 0 0
2713 21 7 -1.0 29.264535509747205 8.256004022127309 -42.98966736225038 0 0 0
2714 21 15 0.0 25.82391863369812 8.493549070828365 -41.74524464737281 0 0 0
2717 21 14 0.0 30.845290911394777 13.736132267262134 -48.26581658324362 0 0 0
2716 21 17 0.0 27.652641644922912 12.94760132965155 -46.28175129059534 0 0 0
2583 20 2 0.0 2.3688166431677318 12.496450804579156 -53.08029265771939 0 0 0
3801 29 5 1.0 0.5828167975782097 8.251852708076404 -44.39114530494187 1 0 0
3804 29 2 0.0 2.36697412276777 16.595505980487545 -37.75730179025361 1 0 0
3805 29 14 0.0 4.46890556239903 18.81301499847223 -40.05035742596718 1 0 0
3802 29 2 0.0 1.3530256009841544 11.488732947115695 -43.050206294188975 1 0 0
3796 29 17 0.0 1.5957787437524538 3.26226475905644 -51.76053428353834 1 0 0
2593 20 17 0.0 11.474718605678046 11.269861599671863 -35.346690401462745 0 0 0
3806 29 2 0.0 3.486106127187225 21.619171275288714 -42.16376858639295 1 0 0
5290 40 14 0.0 23.75410078737348 18.635425781583265 -35.631569142680576 0 0 0
5289 40 2 0.0 24.65687797469081 14.981779074611353 -36.007907925101485 0 0 0
3803 29 2 0.0 1.6336408193018455 13.346999734191504 -39.51996183104108 1 0 0
990 8 2 0.0 6.5544627600598035 0.33269813698896655 -40.67487030734048 1 0 0
4870 37 7 -1.0 1.935502972572652 33.68336374334965 -43.27764229927691 1 0 0
3810 29 17 0.0 8.407336988180829 25.736780510940186 -39.026227421711205 1 0 0
3809 29 7 -1.0 7.426690843976911 28.324375189136312 -41.13564430573597 1 0 0
3808 29 17 0.0 6.288305126980752 26.33737306253024 -44.3327515381881 1 0 0
1225 10 7 -1.0 20.62846578429682 26.94714562567166 -40.0148474818203 0 0 0
1223 10 12 0.0 22.980528726778505 30.854007880503815 -45.03336767662528 0 0 0
1224 10 5 1.0 20.543049339399683 28.603708506860297 -43.20029184897307 0 0 0
4869 37 5 1.0 1.7281679003741397 29.958138303184498 -41.86598895605631 1 0 0
947 8 6 0.0 0.7186299355565074 30.98923906061506 -54.065964083923845 1 0 0
1226 10 5 1.0 17.52520800638433 25.415866216582927 -38.079745189714274 0 0 0
948 8 15 0.0 2.6618853479076505 27.919463793243473 -52.148254221854764 1 0 0
1240 10 14 0.0 29.20075929251655 34.67725753065152 -36.232304044799996 0 0 0
4873 37 7 -1.0 4.752023069508657 41.483142377554124 -38.55990002646851 1 0 0
6754 51 6 0.0 10.981879305876806 40.95690706297656 -49.32043836419939 0 0 0
6752 51 6 0.0 14.96099326750937 43.758732667509086 -53.303904960220166 0 0 0
6755 51 7 -1.0 13.552904561855051 41.5771664559498 -46.904144299604745 0 0 0
6753 51 15 0.0 12.057077788093764 41.864884235837046 -52.74534165364245 0 0 0
1222 10 15 0.0 23.57527320911395 34.443150342692704 -43.720243454727544 0 0 0
6756 51 15 0.0 12.701904163470733 39.253964930125775 -43.884911417374916 0 0 0
6757 51 15 0.0 11.018539172164635 42.51357865115453 -42.41232584397223 0 0 0
6758 51 12 0.0 9.269942713941388 45.70984183756274 -44.10451386766636 0 0 0
6759 51 5 1.0 9.305506522129312 46.63142758858991 -47.67954371816575 0 0 0
4871 37 5 1.0 3.9029158578073617 36.07467499918929 -41.16574148685067 1 0 0
5132 39 6 0.0 11.989771361034979 42.960691566012606 -36.97917821331347 1 0 0
5131 39 1 0.0 14.95179412477555 41.11287855795042 -37.89073106621528 1 0 0
6775 51 14 0.0 4.693724130788655 45.04994177924469 -54.383083034870936 0 0 0
6776 51 2 0.0 2.070197425347543 43.00515226542886 -52.86369855272085 0 0 0
1679 13 9 0.0 28.277681565345784 47.1135904260124 -50.28438383593083 0 0 0
1219 10 6 0.0 26.424775226815797 44.36116960446515 -44.46376342736636 0 0 0
1221 10 15 0.0 26.416177498609784 37.10414226964907 -43.96241066862833 0 0 0
1218 10 15 0.0 30.25951403794614 44.78018593821901 -43.59146426578004 0 0 0
1220 10 7 -1.0 25.437991438172944 40.91512582091102 -43.497697709089934 0 0 0
1241 10 2 0.0 29.943989825614928 36.950399487238094 -39.00692023455258 0 0 0
1680 13 17 0.0 31.637342297500265 45.13456557388012 -50.15171085916483 0 0 0
4872 37 7 -1.0 2.7355292101168045 38.40500736408441 -38.76186165385796 1 0 0
4874 37 15 0.0 6.1057889876686176 40.44320582843872 -34.86351158286844 1 0 0
1518 12 5 1.0 7.190926749047686 70.9289947910842 -41.464555925847655 0 0 0
9457 71 15 0.0 32.290672055987436 71.11981989651447 -43.11055999504773 0 0 0
1677 13 7 -1.0 30.030549681112586 53.118252967111864 -54.056240385086014 0 0 0
1510 12 14 0.0 8.928706127900343 61.261471979015354 -51.76968527125231 0 0 0
1509 12 2 0.0 10.921089333694464 58.28400449190744 -52.32295469883415 0 0 0
1519 12 2 0.0 10.804590312932433 70.22031277563873 -41.84249511235829 0 0 0
1511 12 2 0.0 9.579189814753668 61.86354342646696 -48.38574274018591 0 0 0
1512 12 2 0.0 11.388423201952374 59.74359016400404 -45.81703755360684 0 0 0
6760 51 7 -1.0 12.4129368279502 49.42831813971129 -47.644265983435 0 0 0
1513 12 17 0.0 8.975087990528744 57.05999599138103 -46.09728989327753 0 0 0
1516 12 14 0.0 8.531429526658389 63.90243852935475 -39.97465258995079 0 0 0
1514 12 7 -1.0 6.05885375577697 59.19194786945699 -44.39732981237544 0 0 0
1515 12 17 0.0 7.787517604367015 62.24042358255029 -43.333501361655884 0 0 0
6346 48 1 0.0 14.429516734363109 61.581554116661565 -35.443664181084955 1 0 0
6348 48 15 0.0 18.081716629696388 67.55701645967656 -36.11949865074146 1 0 0
1526 12 2 0.0 23.38709992402395 63.565244220766274 -35.041009176081616 0 0 0
1525 12 5 1.0 25.016123506430443 61.82225587494837 -38.248530503897285 0 0 0
1523 12 15 0.0 20.27276677275813 66.01045301635385 -41.59949385690588 0 0 0
6347 48 6 0.0 17.42597021704803 63.82172757727986 -35.23944246608843 1 0 0
1517 12 2 0.0 6.6728218016439325 67.2889638007166 -40.01216750865416 0 0 0
1524 12 7 -1.0 22.36903818005189 62.72202914429159 -41.03329341825515 0 0 0
1520 12 2 0.0 11.561172998576513 67.81557770107294 -44.95289758398105 0 0 0
6761 51 5 1.0 13.396485260162393 52.24048620305172 -45.5376393021642 0 0 0
1521 12 17 0.0 13.66327951178554 64.76434511116399 -44.481350546486475 0 0 0
6763 51 7 -1.0 9.952708053442278 52.94323755003852 -40.778000905161846 0 0 0
6764 51 15 0.0 6.951783403659639 51.302996457208984 -42.079223696526455 0 0 0
6765 51 2 0.0 3.1242915599320416 50.92241041633689 -42.587820471587754 0 0 0
6766 51 17 0.0 3.4779646528550137 50.789219515413976 -46.42762056009284 0 0 0
6762 51 7 -1.0 13.044674153387495 50.960113821695565 -42.03367292571209 0 0 0
1522 12 14 0.0 16.79900972429646 66.64671593745227 -43.101946030428536 0 0 0
1678 13 2 0.0 29.89818497753113 49.717398213990606 -52.34926188154747 0 0 0
9454 71 6 0.0 26.989291105699724 63.80326861592514 -44.632939890703675 0 0 0
9452 71 6 0.0 31.258689128649387 59.49184330518023 -45.3962533578575 0 0 0
9453 71 15 0.0 27.44404299476939 60.176481451189765 -46.40028510152229 0 0 0
9451 71 1 0.0 30.88336614182999 60.342825072335295 -41.582661464140244 0 0 0
9455 71 7 -1.0 27.39419947208682 67.39623966573271 -45.055935742093986 0 0 0
9456 71 15 0.0 28.15813837922394 70.69297655576462 -43.39061725501028 0 0 0
1527 12 2 0.0 22.888224423499267 67.29023332077138 -35.6873272865148 0 0 0
2749 21 7 -1.0 2.072543653456732 3.8575687071416147 -20.422870452360666 0 0 0
10693 80 17 0.0 26.002769269924368 0.0270877857093717 -20.1351699119531 0 1 0
10687 80 2 0.0 20.836786114752975 1.528893250635978 -24.949110049749105 0 1 0
1000 8 7 -1.0 5.833103771415618 0.5165623319531187 -26.27045515455996 1 0 0
997 8 9 0.0 5.365004016916171 5.952660626026402 -34.33991297920822 1 0 0
10694 80 7 -1.0 24.932701638135782 2.9978769851838845 -18.222356994672307 0 1 0
2748 21 2 0.0 0.4535135512647744 6.557416018249675 -22.281915703378942 0 0 0
998 8 2 0.0 4.026575734048064 3.0758659303805653 -32.06428573145444 1 0 0
10809 81 5 1.0 12.785347706780648 0.6555038233708061 -25.53944875167003 0 1 0
5277 40 7 -1.0 19.909735111742883 1.7785460597612504 -31.99056626124494 0 0 0
5276 40 5 1.0 16.41268351204633 2.3519819623717315 -33.6502463471834 0 0 0
5278 40 7 -1.0 22.42985331413285 3.1039996029834627 -34.566859064205175 0 0 0
5292 40 2 0.0 27.082577103605576 20.606646278387373 -31.22982333906254 0 0 0
5291 40 2 0.0 23.811276455461062 20.806296727092235 -32.27680309398662 0 0 0
5293 40 17 0.0 29.919500984186286 21.141354618566883 -33.807495414798524 0 0 0
1407 11 7 -1.0 11.331468816243921 22.798707838230907 -15.06001967610379 0 0 0
1406 11 2 0.0 12.696540983353618 20.519941202050582 -17.49857541712229 0 0 0
1405 11 7 -1.0 13.412353779703452 16.767718393946677 -17.738427664294033 0 0 0
1396 11 15 0.0 29.46712872347171 2.4919340445108973 -32.321810026168 0 0 0
10810 81 7 -1.0 13.738117407657878 1.7069335306371556 -21.97921220489043 0 1 0
10688 80 2 0.0 19.81685169254226 1.0347506846137269 -20.96947428500657 0 1 0
3820 29 5 1.0 5.987828133937615 18.046254261935474 -16.706788216119808 1 0 0
2750 21 2 0.0 0.7166855028906152 1.9403699311821128 -17.321547486758398 0 0 0
3821 29 2 0.0 1.9079952944485183 18.41501415116888 -15.93755111904686 1 0 0
1397 11 5 1.0 27.493377581273702 4.310339544377296 -29.586674565026833 0 0 0
1404 11 2 0.0 17.05487133323758 14.687670599063766 -18.092307238397833 0 0 0
1403 11 2 0.0 20.247288233940317 13.66915430833901 -19.587589688592633 0 0 0
1402 11 9 0.0 21.95315161292688 10.14101175552917 -19.460836974596972 0 0 0
1400 11 2 0.0 27.83556157086405 8.739487745615612 -20.329661904486212 0 0 0
5283 40 2 0.0 16.98893822221592 13.576160502945044 -31.293760857956997 0 0 0
5284 40 7 -1.0 16.379034873966557 11.679010221436675 -28.102475755577238 0 0 0
2594 20 7 -1.0 9.765450962426712 13.833785595171221 -33.27521969436392 0 0 0
2592 20 2 0.0 12.863532709074562 8.019180322272256 -33.98727559965062 0 0 0
2595 20 17 0.0 8.874837749649032 16.601762080201475 -31.639485332148546 0 0 0
5287 40 2 0.0 23.673554405672252 9.621300988606906 -30.958013159165713 0 0 0
10812 81 7 -1.0 16.514901101708823 5.1546554556418895 -16.182516720785813 0 1 0
2598 20 5 1.0 10.239171312643556 22.945835252192143 -22.433980865962894 0 0 0
2741 21 2 0.0 16.271111330446995 18.682115441532538 -24.464667847745588 0 0 0
2739 21 7 -1.0 14.966789447820975 19.00047591024143 -31.867581209199656 0 0 0
2740 21 5 1.0 16.734776890144047 18.9402061209992 -28.21719757089171 0 0 0
2742 21 2 0.0 13.057232856770122 16.370793146241684 -23.974057328912245 0 0 0
5285 40 2 0.0 20.346464464373465 12.585222759555421 -28.01084342758217 0 0 0
5286 40 5 1.0 21.567883912147078 9.199829076710554 -27.80296137753833 0 0 0
2744 21 2 0.0 7.960260441511207 12.594767854480153 -25.812043446946262 0 0 0
3818 29 15 0.0 4.0012990258065635 21.857742544917414 -21.462614497391144 1 0 0
2743 21 14 0.0 11.202876392906282 13.357416055542089 -24.236815204971176 0 0 0
2597 20 2 0.0 8.329895871200918 20.580442038416113 -25.205811710545195 0 0 0
3819 29 7 -1.0 5.790782280711763 18.60863658356914 -20.210633406162625 1 0 0
2596 20 14 0.0 7.553486777307093 18.89309091391405 -28.648435376448322 0 0 0
3817 29 14 0.0 2.0371061864448565 22.857040247864923 -24.466191308173453 1 0 0
10811 81 5 1.0 14.866563372243078 4.064078770022146 -19.421150795904072 0 1 0
2745 21 2 0.0 4.0435773754873905 13.045395986076931 -25.502788219463877 0 0 0
2746 21 15 0.0 1.4818419834154524 11.798873711822905 -22.679117849678875 0 0 0
10813 81 7 -1.0 16.68920605698428 8.75706113533335 -15.06154331680843 0 1 0
10695 80 17 0.0 22.649028533289194 4.672505437453589 -15.813817109400736 0 1 0
5288 40 2 0.0 23.998902126693014 13.42781847711565 -32.641664972755386 0 0 0
5298 40 5 1.0 28.899391106981252 14.998236674256576 -30.418209597416315 0 0 0
1401 11 2 0.0 25.38853744987716 9.988392760843885 -17.531828347817854 0 0 0
5297 40 2 0.0 31.725817935278926 16.239068877415857 -28.640350210986163 0 0 0
1399 11 7 -1.0 29.332628742291718 5.4602230747462475 -21.92957576398993 0 0 0
1398 11 2 0.0 28.997866029167877 4.689998839990978 -25.856743790057852 0 0 0
5299 40 2 0.0 25.902121403922827 15.495359950099386 -27.905438525776056 0 0 0
5301 40 17 0.0 24.707482646081242 19.776402181522144 -24.615168466344613 0 0 0
12445 93 14 0.0 31.496933518961754 14.988599918305733 -21.306969576949363 0 1 0
5300 40 2 0.0 22.992969479453 17.222452926025806 -26.613686230393213 0 0 0
5302 40 14 0.0 27.911806870805567 21.804639236672752 -24.024028539348684 0 0 0
999 8 2 0.0 3.279048085928877 0.2800521368925786 -29.446939296555716 1 0 0
5314 40 7 -1.0 14.999770058170006 32.59481448739843 -15.954722134748325 0 0 0
1232 10 14 0.0 20.104221779395935 30.935681753575572 -21.8915086628315 0 0 0
2599 20 2 0.0 10.937080503428088 26.950602843146267 -21.553214463645027 0 0 0
1229 10 15 0.0 22.592336093363375 29.075536855801058 -29.736984979316347 0 0 0
2600 20 2 0.0 8.478966474619517 29.319179268104694 -23.56903364792241 0 0 0
1230 10 2 0.0 21.21933600294982 27.428253441054764 -26.406530815017845 0 0 0
1228 10 7 -1.0 19.228955615885702 28.48508447964918 -31.4650067230458 0 0 0
1231 10 17 0.0 18.86889152264673 27.92294660482621 -23.345666390787418 0 0 0
2602 20 14 0.0 4.8026718597478215 29.03514938559474 -18.60561567944608 0 0 0
2603 20 15 0.0 4.222781610501818 25.62369756049236 -16.496383404090583 0 0 0
2601 20 17 0.0 5.007541232170684 30.68999651888472 -22.067872113189573 0 0 0
5313 40 2 0.0 16.986632539595316 29.56437022918877 -15.260458635140651 0 0 0
1233 10 2 0.0 21.7746282786493 33.58427348392443 -24.18285111809482 0 0 0
3812 29 2 0.0 9.344471246590851 24.27552046415886 -33.912936723084826 1 0 0
1227 10 7 -1.0 17.09091742751679 27.529458275388066 -34.702352797946055 0 0 0
3814 29 2 0.0 9.397415229773578 26.111115403373013 -29.74531042924012 1 0 0
3816 29 17 0.0 2.5703871872722925 25.1266343618898 -26.826945183698697 1 0 0
3815 29 2 0.0 6.044987933337463 26.347332993218874 -28.149204636505672 1 0 0
3813 29 5 1.0 9.341597788927034 28.12187957044032 -33.08629011916654 1 0 0
1698 13 14 0.0 32.55781515630825 27.7101775210338 -23.95907540004777 0 0 0
5305 40 5 1.0 27.005595296866765 31.39012112590069 -20.855397631002557 0 0 0
5304 40 7 -1.0 26.720060972709827 27.84989558647562 -20.234226693794927 0 0 0
5303 40 15 0.0 28.20304662078889 24.423126123465547 -21.26638873103995 0 0 0
1234 10 7 -1.0 24.623021143707245 35.38011245726419 -25.809356175069325 0 0 0
5306 40 2 0.0 25.36152603850945 34.620920398067405 -20.413104063118443 0 0 0
5307 40 2 0.0 24.273722803257094 36.332294256976056 -17.223149664288446 0 0 0
1236 10 5 1.0 23.84146128717255 40.913168902399654 -27.452865071726706 0 0 0
4875 37 2 0.0 6.18009774769743 41.68093358115384 -31.249853121023317 1 0 0
4876 37 17 0.0 3.1289645648416125 41.29666834652297 -29.206618897536654 1 0 0
5139 39 5 1.0 9.926474615528871 42.513783258357265 -17.888405131590527 1 0 0
1235 10 2 0.0 23.025637161305486 38.670606629306775 -24.538452208651783 0 0 0
2985 23 2 0.0 24.875531333102064 42.0818076355704 -18.468766840237432 0 0 0
2984 23 15 0.0 21.311629050152845 41.09368515886939 -18.759155876386753 0 0 0
5144 39 15 0.0 0.4650050532640006 45.766888354071305 -25.306692850504795 1 0 0
1239 10 2 0.0 26.818721760104005 34.470120386121856 -33.28514832828437 0 0 0
1238 10 2 0.0 25.02251156667276 37.84268236313273 -32.41237128708898 0 0 0
1237 10 2 0.0 22.43251217776612 37.94038682865755 -29.87397742627381 0 0 0
2986 23 17 0.0 27.957815514113783 44.35245403104011 -17.19054474300957 0 0 0
5141 39 5 1.0 3.2014530709146216 45.30157861020688 -19.710011813024483 1 0 0
5140 39 7 -1.0 7.217921951267304 44.568493879055566 -19.443211003188896 1 0 0
2983 23 7 -1.0 18.16601840981036 43.110929407100556 -17.51319117243551 0 0 0
5138 39 12 0.0 10.383981559860914 39.39129253855947 -19.915045198819573 1 0 0
5137 39 15 0.0 7.895631595480824 38.91004160212241 -22.915849853254592 1 0 0
5136 39 15 0.0 7.090901172534577 41.39091199229397 -25.5157747913879 1 0 0
5135 39 7 -1.0 10.293861131160254 41.31221589261713 -27.556288869386762 1 0 0
5133 39 15 0.0 12.708017853387759 44.96777307116377 -33.882180976837965 1 0 0
5134 39 6 0.0 11.098707993229876 43.12172447212827 -30.896001652382456 1 0 0
2987 23 14 0.0 28.07955786731066 46.58862589356578 -20.709155737757634 0 0 0
6350 48 7 -1.0 14.386408899143124 70.97337267025608 -31.50979696092832 1 0 0
1530 12 2 0.0 23.19409752205809 68.65519274060388 -26.344110277697386 0 0 0
6349 48 6 0.0 16.995465730879005 70.88500517398286 -34.39462191072668 1 0 0
1542 12 7 -1.0 11.473366447894811 50.265913905655296 -15.021873704046842 0 0 0
1535 12 2 0.0 18.758447964673735 63.90316656494737 -15.34917698986697 0 0 0
5148 39 2 0.0 0.8506211459883815 51.36234561861772 -18.727550346849466 1 0 0
6891 52 15 0.0 17.26226075369192 52.947345738275224 -27.5499631121833 0 0 0
6894 52 5 1.0 9.191458417256621 55.057468076255574 -26.002045966768456 0 0 0
6895 52 7 -1.0 6.557804451654417 57.22212020611645 -24.606280769601373 0 0 0
6889 52 6 0.0 22.23391748352654 58.70133289021681 -28.466250643735606 0 0 0
6890 52 7 -1.0 19.475951976663513 56.28346098157892 -27.72774054140455 0 0 0
5146 39 17 0.0 5.388933284023674 50.70399639702423 -22.58300420999733 1 0 0
5147 39 14 0.0 4.746781443596679 52.95303786541104 -19.681898686267694 1 0 0
6898 52 7 -1.0 4.704036727759629 64.44858255247058 -19.926227488094327 0 0 0