LAMMPS data file via write_data, version 29 Oct 2020, timestep = 100000

13500 atoms
40 atom types
13400 bonds
1 bond types

0.0 140.0 xlo xhi
0.0 140.0 ylo yhi
-360.0 360.0 zlo zhi

Masses

1 131.199997
2 57.0499992
3 128.199997
4 101.0999999
5 156.1999999
6 71.08000180000001
7 115.099998
8 129.100006
9 163.1999999
10 99.0699997
11 113.199997
12 128.100006
13 186.199997
14 147.199997
15 87.080001
16 137.100006
17 114.099998
18 97.1200027
19 103.099998
20 113.199997
21 131.199997
22 57.0499992
23 128.199997
24 101.099998
25 156.199997
26 71.08000180000001
27 115.099998
28 129.100006
29 163.199997
30 99.0699997
31 113.199997
32 128.100006
33 186.199997
34 147.199997
35 87.08000180000001
36 137.100006
37 114.099998
38 97.1200027
39 103.099998
40 113.199997

Bond Coeffs # harmonic

1 9.6 3.81

Atoms # full

2567 20 6 0.0 26.20042292985122 32.98191435622131 -75.78923205410125 0 0 0
2566 20 1 0.0 26.878270734807995 33.03057837739453 -79.42538811574046 0 0 0
2568 20 15 0.0 25.470316967703848 31.167612617583078 -72.76502068632155 0 0 0
8236 62 1 0.0 7.183479880586552 65.60518944118557 -78.41715328049712 0 0 0
8237 62 6 0.0 8.994663582501612 67.62717415079572 -75.22000882665473 0 0 0
4198 32 8 -1.0 35.71854761336592 68.17296106018247 -76.09564907268879 0 0 0
4197 32 8 -1.0 35.9563230321371 70.3791961868949 -72.3879825107769 0 0 0
8238 62 15 0.0 6.908659356567974 70.81413311231162 -74.47725258904337 0 0 0
11073 83 15 0.0 17.2099836279392 12.662724131457514 -60.84789929538379 0 1 0
11074 83 6 0.0 17.660070147992045 13.301608284398506 -57.24639539326784 0 1 0
11075 83 8 -1.0 15.867295570626977 10.39451355789773 -54.86344430042711 0 1 0
11076 83 15 0.0 18.487259576252125 8.092306411774421 -53.70516205649737 0 1 0
11077 83 15 0.0 22.036034486434268 6.603021849911832 -52.60715747603222 0 1 0
4066 31 17 0.0 27.636837843207644 9.104031511321011 -54.96949198400639 0 0 0
11071 83 1 0.0 22.557967179084137 9.990396233303604 -62.32323575844893 0 1 0
11072 83 6 0.0 19.111348739574616 10.550777545475851 -63.63059507136288 0 1 0
2573 20 12 0.0 24.579606251056823 23.314369807350126 -63.650790961484546 0 0 0
4067 31 14 0.0 28.777835603355676 8.540294617233194 -51.22972992308619 0 0 0
4068 31 2 0.0 32.15797791253476 9.838883292975613 -51.208705798403926 0 0 0
4077 31 2 0.0 27.503230792991694 17.68025473746273 -52.92615587325968 0 0 0
4078 31 17 0.0 30.318149265748158 14.729651801456095 -53.11633783527271 0 0 0
4063 31 8 -1.0 33.190469782768865 2.1382384579698064 -57.497656235083895 0 0 0
4065 31 2 0.0 31.34920251009675 7.503967403458871 -56.55065374722044 0 0 0
4062 31 8 -1.0 31.662595620994136 1.3052454684007269 -61.17932032824332 0 0 0
1228 10 8 -1.0 0.7771487865258658 18.276583614329294 -56.81472123747271 0 0 0
1226 10 5 1.0 2.938857793993516 21.648546730833267 -62.865285509191885 0 0 0
4064 31 15 0.0 30.47627950838619 4.036662397171462 -55.58604078278892 0 0 0
1227 10 8 -1.0 3.178320468124068 18.85187621807322 -60.12270887389712 0 0 0
2576 20 5 1.0 25.943168258927628 27.476368143927015 -53.39783538728227 0 0 0
2575 20 8 -1.0 24.350685972872434 25.992287341587943 -56.65705644482837 0 0 0
2569 20 6 0.0 27.572491664493203 31.21278713392233 -69.53400356041078 0 0 0
2570 20 8 -1.0 25.78251477206414 30.27417667367423 -65.85692394609646 0 0 0
2571 20 15 0.0 23.960070160929263 27.738812180221732 -68.29673869751532 0 0 0
2572 20 15 0.0 24.12521780673575 24.059262890369986 -67.54930412299939 0 0 0
2574 20 5 1.0 25.07281524984292 24.281678673769413 -59.837818586591176 0 0 0
2577 20 8 -1.0 23.60654429105506 29.112992699435672 -51.00215899948951 0 0 0
4209 32 2 0.0 34.07244736459546 68.40826868915714 -63.72667395571003 0 0 0
6616 50 1 0.0 10.464850907179386 65.62497002725482 -64.46595096807359 0 0 0
6632 50 14 0.0 6.607446254146493 66.9710122645079 -56.27673528110903 0 0 0
6619 50 6 0.0 10.048474730445157 57.6687867750252 -58.04617106296173 0 0 0
6621 50 15 0.0 16.858015112664354 61.58757949895966 -55.320518985759435 0 0 0
6620 50 8 -1.0 13.28590629883154 59.93291412199489 -57.084021914230554 0 0 0
6622 50 15 0.0 17.64488905999069 64.64188148116452 -57.02306358593383 0 0 0
6623 50 12 0.0 20.921277453858327 64.4412782146275 -58.7657248026004 0 0 0
6633 50 2 0.0 3.977896302258232 66.15886623659972 -54.06741325740553 0 0 0
6625 50 8 -1.0 22.914789142490317 64.69049249419905 -52.68823443496045 0 0 0
6624 50 5 1.0 23.790294225940094 63.5286589149203 -56.35256574065131 0 0 0
6618 50 15 0.0 7.747887949187069 60.72833322524596 -59.88835055329905 0 0 0
6630 50 2 0.0 12.947123461116043 69.70386205391218 -57.70263802586298 0 0 0
6617 50 6 0.0 8.081905459659676 64.20102863669106 -61.46299077875523 0 0 0
6631 50 17 0.0 10.088935747082468 68.22238628240562 -55.825707843193804 0 0 0
8241 62 15 0.0 5.595938606913078 71.55367604425285 -65.39117780464092 0 0 0
6628 50 8 -1.0 15.481383634161007 71.09987357786717 -51.080988157914234 0 0 0
4196 32 5 1.0 33.93045699757349 71.55319161134581 -69.05210222419022 0 0 0
6629 50 15 0.0 14.60427759992084 71.41015999368344 -54.72047830754195 0 0 0
11079 83 5 1.0 25.310621747277732 2.311916670026049 -48.061345367353994 0 1 0
11078 83 12 0.0 23.194915225865646 5.253953599687408 -49.78218690661954 0 1 0
4069 31 8 -1.0 35.28992009732704 7.797201481353448 -50.34957398915691 0 0 0
13252 99 2 0.0 22.35230298372682 0.008804908218509662 -33.280644410814844 1 1 0
3800 29 2 0.0 0.8773333091265595 19.992374597773097 -34.91158608383327 1 0 0
13371 100 15 0.0 17.714470625094968 13.505932427659937 -40.7860709093152 0 1 0
13096 98 1 0.0 5.598627969999431 9.571334108495334 -35.6041282037254 1 1 0
3801 29 5 1.0 3.6438727836256657 17.98189065242928 -33.345380155075844 1 0 0
13372 100 15 0.0 18.709990681172574 11.377242415182055 -37.6043303963516 0 1 0
13370 100 8 -1.0 15.111237562853997 15.49488743754854 -38.35048367573718 0 1 0
12161 91 5 1.0 25.499926343220203 12.461650322658109 -39.7445256827945 0 1 0
12162 91 8 -1.0 26.50878338636696 10.576191953305042 -36.501517270959084 0 1 0
12158 91 12 0.0 25.599507169149064 21.361057707969476 -46.03108970526841 0 1 0
12157 91 15 0.0 28.98051145932147 22.546718118145236 -47.015824073367384 0 1 0
12159 91 5 1.0 23.83662044003509 19.431273464685162 -42.91058524389476 0 1 0
12160 91 8 -1.0 24.77315990535851 15.681793689164218 -41.8790598517796 0 1 0
12156 91 15 0.0 32.596646566790234 23.786841518642763 -47.694321704484615 0 1 0
4074 31 2 0.0 22.011075906551884 11.375810758632744 -46.60043362694179 0 0 0
4075 31 14 0.0 23.599546510796372 13.629037407367905 -49.099362952670155 0 0 0
4076 31 2 0.0 24.720441943208254 16.611470436760875 -50.514995554573616 0 0 0
4082 31 2 0.0 35.13450825188238 18.694905322402885 -41.87465767687963 0 0 0
4080 31 17 0.0 30.349306463125323 16.509942096537415 -45.98939373114931 0 0 0
4079 31 7 -1.0 31.88417591494673 14.67842711099331 -49.07548727139138 0 0 0
4081 31 14 0.0 32.01845150814772 16.731853773602914 -42.50954582798002 0 0 0
4084 31 2 0.0 34.72945966563748 23.28287279393302 -40.58334807030024 0 0 0
4087 31 14 0.0 26.96018416331221 22.178448208165275 -36.595723081998585 0 0 0
4073 31 2 0.0 24.77623923436481 9.041908927969859 -45.494417742504304 0 0 0
13369 100 6 0.0 12.713929945317823 17.568622483649662 -36.326158784551936 0 1 0
13373 100 12 0.0 17.77182115951875 12.303208417619535 -33.92222741618695 0 1 0
12165 91 2 0.0 22.632503349123528 5.8278384294206855 -32.48779247484644 0 1 0
12164 91 15 0.0 25.183853481446253 3.9784273204180503 -35.09301235305947 0 1 0
4072 31 2 0.0 28.5048222151294 8.62084089903764 -45.00155872558177 0 0 0
13100 98 8 -1.0 6.6410178640636115 3.8937730562690716 -32.48746800758835 1 1 0
4086 31 17 0.0 30.710181254240076 21.276007456940608 -37.41081423986837 0 0 0
12163 91 8 -1.0 25.828117111754874 6.922431916190827 -37.33739682164241 0 1 0
13097 98 6 0.0 8.65805984376681 10.565362289530105 -33.482448960367364 1 1 0
4071 31 5 1.0 31.981732567442 9.113056545123767 -43.424372053858995 0 0 0
3799 29 8 -1.0 2.109622419820158 23.416546695025183 -35.37280986481853 1 0 0
3803 29 2 0.0 7.180397953287702 22.274147073003896 -31.612465372756702 1 0 0
3802 29 2 0.0 7.07133952943318 18.24614990442444 -32.37314558231276 1 0 0
4070 31 2 0.0 34.490552428961564 8.26911755128884 -46.4325522521194 0 0 0
13368 100 15 0.0 15.26439583911792 17.959576071952508 -33.155902244328956 0 1 0
13101 98 15 0.0 5.74352263172176 0.08063858013571945 -33.20749183308832 1 1 0
13251 99 5 1.0 19.12842896387252 1.4341107776537518 -32.03685624687112 1 1 0
13103 98 12 0.0 0.1812381802218681 0.7520485874669939 -31.621868220212445 1 1 0
2581 20 17 0.0 19.440665019517496 34.650469927363005 -45.948420230050736 0 0 0
2582 20 14 0.0 17.136472641672274 31.81645159821155 -45.12718430294947 0 0 0
12154 91 6 0.0 35.30574864552576 30.456327563879327 -44.56784377804 0 1 0
12155 91 8 -1.0 34.28935162964145 26.942158558316454 -46.615350427638475 0 1 0
2585 20 2 0.0 19.875269011985242 28.905910235304955 -40.68838894775105 0 0 0
3798 29 2 0.0 4.953462224716184 26.1108678000328 -34.53961889885052 1 0 0
3797 29 14 0.0 5.6475232869052965 29.99873956219907 -33.6554759726094 1 0 0
2580 20 2 0.0 20.817510384248273 36.99650784984838 -48.63835009506071 0 0 0
2578 20 8 -1.0 25.91897173098098 32.3026180607154 -49.73149071136745 0 0 0
2579 20 15 0.0 23.472138693397003 35.189231782638466 -50.5479363364426 0 0 0
2583 20 2 0.0 19.54072080969884 28.83248499228873 -45.574220054359564 0 0 0
2584 20 8 -1.0 19.410448722653264 26.104057584096417 -43.059071068892045 0 0 0
3796 29 17 0.0 3.1963769622878937 31.93043334949334 -35.473732350655915 1 0 0
2586 20 5 1.0 22.963232379136343 31.010204254253164 -40.60880819708208 0 0 0
2712 21 8 -1.0 11.115249894179556 34.59737772763751 -35.425993766488695 0 0 0
2587 20 2 0.0 21.703853065089305 35.06351683887908 -40.21549453634447 0 0 0
2713 21 8 -1.0 12.740748837536518 32.54978843975871 -32.66929101161736 0 0 0
4088 31 15 0.0 27.418919751108927 25.239625011250766 -34.4448749211839 0 0 0
2588 20 2 0.0 22.251375049529273 38.96568582274001 -40.40261717365067 0 0 0
2589 20 2 0.0 23.585647552006172 38.3042808247686 -36.64437560562759 0 0 0
2714 21 15 0.0 14.151568756095719 29.02781514395739 -32.11218383846318 0 0 0
2710 21 8 -1.0 4.869901833404366 37.94071177673129 -37.35411295732654 0 0 0
2590 20 14 0.0 26.29815256171837 37.36010443484012 -34.053347428736046 0 0 0
2846 22 5 1.0 36.5011191270661 37.55361075299217 -39.83808250561027 0 0 0
2847 22 8 -1.0 34.35165421745021 40.53623210239234 -40.14870901771339 0 0 0
2848 22 8 -1.0 34.264258279490136 44.63141982598338 -39.65357211015215 0 0 0
5408 41 12 0.0 29.140368698882583 44.393510406853785 -34.13827851710976 0 0 0
5407 41 15 0.0 32.939693165872114 43.61571536871194 -33.76889286893949 0 0 0
2709 21 5 1.0 1.9555657277406118 40.292156535101405 -38.11665832345308 0 0 0
2711 21 5 1.0 8.200770672390217 36.03272502815173 -37.53295461550828 0 0 0
2703 21 15 0.0 7.748025115895392 34.01324190671399 -47.002858134798444 0 0 0
2849 22 15 0.0 35.75379344885593 46.98993621678494 -37.70676299080356 0 0 0
2702 21 6 0.0 4.996175948042931 31.819663349417358 -45.88894710720448 0 0 0
5409 41 5 1.0 27.032980970580837 47.39158429205527 -33.08742199624264 0 0 0
2705 21 8 -1.0 2.332640272388634 36.81588624544606 -45.05195858012695 0 0 0
2591 20 2 0.0 26.12672686341019 40.15639383258361 -31.590346046854663 0 0 0
2701 21 1 0.0 2.203759199462814 31.369896805847212 -48.28652306359604 0 0 0
3784 29 6 0.0 1.9378645302784279 47.16296542185101 -32.84347113826765 1 0 0
2704 21 6 0.0 5.758247303169742 36.95942476273463 -45.93363272545125 0 0 0
3795 29 2 0.0 1.8723557583038737 33.15940096154546 -38.83808339001923 1 0 0
4085 31 2 0.0 32.28119193899159 24.783751158719724 -37.9502855217161 0 0 0
6626 50 5 1.0 21.615887540078848 66.99008505878524 -49.82081853619824 0 0 0
6634 50 8 -1.0 3.1401566183783296 67.05644288838457 -50.30669902399756 0 0 0
2854 22 8 -1.0 33.0640384682675 60.77431686017914 -41.776498090758786 0 0 0
6638 50 2 0.0 12.835230679247198 63.99980965010402 -45.63856883264778 0 0 0
3781 29 1 0.0 5.510245973880272 53.64477643903658 -39.43385244410274 1 0 0
6635 50 2 0.0 5.431121805272948 64.66718942520147 -49.07501321740509 0 0 0
6637 50 2 0.0 11.339898325390752 64.39135064825888 -49.205180406670635 0 0 0
6636 50 5 1.0 8.173521530089083 62.53676694746774 -50.39069702305917 0 0 0
6763 51 8 -1.0 10.821845329450458 53.51555147423551 -35.8386356955956 0 0 0
6764 51 15 0.0 14.49234920052147 51.95469839158206 -37.4496708003354 0 0 0
6765 51 2 0.0 15.54315713355895 55.75996047063177 -37.855229848785754 0 0 0
6760 51 8 -1.0 3.627185254262501 58.787510614231294 -36.1205655890798 0 0 0
6759 51 5 1.0 2.201439222779941 60.99154790139942 -39.15943405821508 0 0 0
6758 51 12 0.0 0.7983199288862227 64.5575657380217 -37.81928558386929 0 0 0
6766 51 17 0.0 18.293762933900776 55.068228561780224 -35.28906521298233 0 0 0
6757 51 15 0.0 0.5866958776789879 66.28908916427989 -34.56925078508968 0 0 0
7026 53 15 0.0 33.41373770580183 54.84249999675091 -35.98532766379511 0 0 0
7025 53 8 -1.0 30.29316673178924 54.7988154599168 -38.37571046570645 0 0 0
7022 53 6 0.0 25.22198770443617 55.15117288931667 -45.41500003240337 0 0 0
7024 53 6 0.0 29.792021185083875 54.76683379391472 -42.13912182534859 0 0 0
7023 53 15 0.0 28.435866278744665 57.40826598495295 -44.39727669972998 0 0 0
7021 53 1 0.0 25.237652857390245 51.43078095663038 -45.56965950394447 0 0 0
3782 29 6 0.0 4.832129891475976 52.27010515685778 -35.9903025354501 1 0 0
10949 82 15 0.0 32.65684917016095 69.86141064188824 -37.75001772151144 0 0 0
5415 41 2 0.0 25.81968243438048 65.72649998087373 -35.163578917257084 0 0 0
7027 53 15 0.0 36.706463535225325 56.391519788572936 -35.61962892305924 0 0 0
5416 41 17 0.0 24.6295143599683 69.32810011593816 -34.64118785045468 0 0 0
5412 41 8 -1.0 26.488114172284437 55.41944687705376 -32.07106964120475 0 0 0
10951 82 17 0.0 30.64591249251504 68.14534972220437 -43.23024369029806 0 0 0
6639 50 2 0.0 13.971623547136897 67.94865797583621 -46.78286903451646 0 0 0
6627 50 8 -1.0 18.280034446478027 69.08051606235672 -50.24636912416063 0 0 0
2853 22 2 0.0 36.205187757609224 59.57924402536552 -42.888387637445724 0 0 0
6762 51 8 -1.0 9.368387000996607 54.718998876746 -32.535972083133686 0 0 0
6761 51 5 1.0 6.55191768527154 57.572532173184065 -33.49147777998416 0 0 0
2852 22 14 0.0 36.830567444171294 55.45186814498876 -42.42848458821047 0 0 0
6767 51 14 0.0 19.550727897928514 52.58591769419503 -32.41113076751401 0 0 0
3783 29 15 0.0 1.8685695827124245 50.85255770758503 -33.65401569057621 1 0 0
2855 22 2 0.0 32.99806062795787 62.416177923751796 -38.32753491593662 0 0 0
5414 41 15 0.0 26.821957222393884 62.22845195006143 -33.44784368210334 0 0 0
5413 41 8 -1.0 27.21220388462601 59.11257018687585 -31.805560966190754 0 0 0
2856 22 5 1.0 33.44407864460135 62.98635835266553 -34.558890902841796 0 0 0
10950 82 2 0.0 33.389419825123234 67.95649490842375 -40.7353397396965 0 0 0
10952 82 14 0.0 27.613655131060312 69.62963898956043 -40.810562702510836 0 0 0
2851 22 17 0.0 35.95520273402698 52.734156837485784 -40.270449338917174 0 0 0
2850 22 2 0.0 36.90904894542629 50.67060319302841 -36.88670035936869 0 0 0
5417 41 14 0.0 26.824377237988745 71.25556114681808 -32.16712214437682 0 0 0
6640 50 14 0.0 13.41124468419777 71.3649153876719 -45.0177499802811 0 0 0
10947 82 8 -1.0 34.87179264236625 71.58265884733471 -32.49785300089485 0 0 0
284 3 15 0.0 21.407316893345083 2.5002896937406143 -12.261219711749774 0 0 0
13098 98 15 0.0 9.34240203478697 8.629893285985686 -30.111581699071518 1 1 0
13099 98 6 0.0 9.394030601286687 4.74762740860047 -29.895151205686194 1 1 0
12166 91 17 0.0 22.016829923953 6.732702792004214 -28.55975272020726 0 1 0
282 3 8 -1.0 25.294915063710494 1.0924535808430986 -18.336260721543024 0 0 0
12173 91 2 0.0 21.464126477776716 16.131217414759448 -14.850907483797743 0 1 0
12174 91 2 0.0 23.54534929329275 13.352851914221578 -15.753328519027766 0 1 0
13265 99 2 0.0 13.794240195760192 1.4381821557323253 -17.137735560508464 1 1 0
13375 100 8 -1.0 19.96668748222614 12.691332175585215 -27.3005183038227 0 1 0
13374 100 5 1.0 19.799437568888155 12.755362199029065 -30.903831163866656 0 1 0
13376 100 5 1.0 18.285665437765065 12.675677164765956 -23.89229468960127 0 1 0
13377 100 8 -1.0 14.90887121871896 11.855422066541614 -22.376898951391308 0 1 0
13378 100 8 -1.0 12.318930335262406 9.29606844429204 -21.637372996785714 0 1 0
1352 11 6 0.0 12.35709639761536 21.001043656619025 -13.583842175222541 0 0 0
13366 100 1 0.0 12.026207160015435 19.749943215011168 -26.57452352168236 0 1 0
12171 91 5 1.0 18.092172615185845 11.475073713423939 -15.385691797490122 0 1 0
12172 91 2 0.0 19.44411896936281 13.932370642882457 -12.689731159620049 0 1 0
13380 100 2 0.0 10.566952542601996 12.093108285472574 -15.325148411233073 0 1 0
12168 91 2 0.0 22.201816726104674 7.905355639602598 -22.86445779108874 0 1 0
12167 91 14 0.0 22.183396259723686 4.752574624293699 -25.243859932162405 0 1 0
12169 91 8 -1.0 22.562393253388674 8.138145253188169 -19.121991136505454 0 1 0
12170 91 2 0.0 20.017675232223876 11.002746118995608 -18.279795616972994 0 1 0
13379 100 15 0.0 10.803677080108871 9.142474995151323 -18.303946350182642 0 1 0
1757 14 6 0.0 34.67924745957086 22.62988292495049 -26.89196125127228 0 0 0
2723 21 2 0.0 26.05837461024873 20.348204288307063 -18.980728098551758 0 0 0
3804 29 2 0.0 4.429568071267135 23.823495004424352 -29.43053021334213 1 0 0
13367 100 6 0.0 12.801538688688836 18.407476498111 -30.266471011783672 0 1 0
2724 21 2 0.0 22.52474690104155 21.77472322243245 -18.20042630467107 0 0 0
2722 21 2 0.0 29.4488469435629 21.02961922276808 -20.486411282533833 0 0 0
283 3 8 -1.0 23.28124387407181 1.5296804387389107 -15.140781971441207 0 0 0
13266 99 17 0.0 10.760845661466455 0.15435008144409615 -14.942304287319287 1 1 0
12175 91 14 0.0 25.156851924366393 10.84583560182145 -13.156890096149482 0 1 0
12176 91 2 0.0 28.490592836056326 12.863815952403696 -12.165767423767052 0 1 0
13267 99 14 0.0 7.768384233891078 0.9397401383153674 -17.283814171631093 1 1 0
272 3 6 0.0 35.66316580906922 0.7557928900460344 -23.09759874094985 0 0 0
1240 10 14 0.0 0.09633970857646545 21.562303140779974 -24.84745065176376 0 0 0
5405 41 8 -1.0 32.320356664933534 39.36134063315069 -29.134882462825537 0 0 0
4089 31 8 -1.0 25.88940994653857 26.7840952941424 -31.407397913475158 0 0 0
4090 31 5 1.0 24.78395945156301 30.36388357814207 -31.10350025394539 0 0 0
5406 41 15 0.0 33.39608978038488 43.22824771116805 -29.70279885075079 0 0 0
3931 30 17 0.0 5.459308532051116 39.36812932390805 -25.58637062118028 0 0 0
3934 30 8 -1.0 1.6806792650197537 34.007928549525076 -27.35474053652947 0 0 0
5403 41 15 0.0 33.76551747022282 41.104114920578446 -23.756656630353824 0 0 0
1758 14 15 0.0 36.08965445716841 25.12036096538937 -24.063572766670273 0 0 0
2721 21 5 1.0 29.384080710891773 24.72747450037859 -20.970935677974825 0 0 0
2720 21 2 0.0 27.09242143718324 25.25547483939752 -24.106802656112336 0 0 0
4096 31 15 0.0 30.10184726185325 37.48913109907698 -19.651125867693317 0 0 0
4097 31 5 1.0 31.36358280536269 38.23104060727796 -15.870371401772791 0 0 0
2717 21 14 0.0 19.455143836561188 31.153949310557426 -26.10404015632304 0 0 0
2730 21 17 0.0 34.25597370028947 32.439304977263774 -12.849215619923392 0 0 0
2716 21 17 0.0 17.572416176493004 28.157185677475166 -26.753711446079176 0 0 0
2718 21 2 0.0 23.11786248411765 30.866664533629102 -25.099311066713714 0 0 0
3937 30 2 0.0 1.7870804441963144 35.4461327042776 -20.97341671493205 0 0 0
2729 21 7 -1.0 30.974745450323333 30.656641846209094 -13.841468178721565 0 0 0
4095 31 2 0.0 26.664283142289346 36.97180457981584 -20.830994476649636 0 0 0
3807 29 2 0.0 4.4379443964337995 24.947354096860277 -21.30692093575206 1 0 0
4094 31 2 0.0 27.10285064788105 34.29409139344906 -23.30124815521165 0 0 0
2719 21 8 -1.0 24.54432687839279 27.764354755361406 -23.17367531014161 0 0 0
3805 29 14 0.0 2.7734598307611136 26.696911490667347 -28.489878701880823 1 0 0
3806 29 2 0.0 3.3781440913065652 26.59511284974025 -24.719941870704815 1 0 0
3809 29 7 -1.0 9.353934380291005 26.234537059147787 -18.472907924892166 1 0 0
3808 29 17 0.0 7.948910859978171 25.777642792044112 -22.141898366873118 1 0 0
3810 29 17 0.0 12.923121775612952 25.625700816324187 -17.072758575678897 1 0 0
2725 21 14 0.0 20.288372713961657 24.380277554564813 -17.10625177143966 0 0 0
2715 21 2 0.0 14.809754442536024 27.109152019712973 -29.12575180806396 0 0 0
4091 31 2 0.0 26.051888836220545 32.98275936538662 -29.02851871278037 0 0 0
3938 30 2 0.0 4.0437784400740435 35.966636669807734 -18.002708216894707 0 0 0
4092 31 2 0.0 29.780248796239746 32.15939653473907 -27.958764620852175 0 0 0
2726 21 2 0.0 22.920549382222134 26.211384945983415 -15.245184660206633 0 0 0
2727 21 2 0.0 24.830366495241595 28.046051123541986 -17.509535220835296 0 0 0
3811 29 14 0.0 13.980023760032113 27.22860649133302 -13.755879414064957 1 0 0
2728 21 17 0.0 28.089653064493145 29.112043819604423 -15.620118444914437 0 0 0
4093 31 14 0.0 29.73971903743663 31.78936186531503 -24.42105021013783 0 0 0
3939 30 2 0.0 6.003770158777639 39.39950647934248 -18.766554321717408 0 0 0
4098 31 2 0.0 33.48997407869062 40.432702915330346 -13.933917760529287 0 0 0
2592 20 2 0.0 24.03568485070655 39.29714046619698 -28.533662290716865 0 0 0
2606 20 2 0.0 12.445067518324965 40.68746250128163 -18.867601491331005 0 0 0
3930 30 2 0.0 2.980612627054914 40.81388879438921 -28.290950510883828 0 0 0
3940 30 14 0.0 6.379856174132757 42.661501533108485 -17.450086262733084 0 0 0
2604 20 8 -1.0 14.695074003103242 45.25932391300075 -22.570109201612212 0 0 0
2605 20 5 1.0 12.265444267445538 43.124031714354786 -21.412298878800765 0 0 0
2593 20 17 0.0 22.368315368112818 41.26702699873326 -26.08733328085669 0 0 0
2607 20 2 0.0 13.339554463541802 37.4091261027353 -17.271682132716162 0 0 0
2594 20 7 -1.0 24.022010479526163 44.40953144034752 -27.455975113844914 0 0 0
5402 41 6 0.0 35.36092816497722 39.98278828195935 -20.625721598351653 0 0 0
2608 20 14 0.0 13.22370221980729 36.189681515517314 -13.79091037903063 0 0 0
5401 41 1 0.0 36.825598273655274 42.20374927774472 -18.021660183153166 0 0 0
5404 41 6 0.0 32.43338023900328 37.92180211847039 -25.451771666027184 0 0 0
2595 20 17 0.0 26.80252325561973 46.4868306077168 -26.429255488356425 0 0 0
178 2 14 0.0 37.32755857626386 33.314193170464236 -24.1340751144006 0 0 0
3932 30 14 0.0 7.747924232529288 36.34625153988099 -26.676780242090803 0 0 0
3941 30 2 0.0 7.79885298919511 43.49070880207648 -13.93719456813216 0 0 0
3933 30 2 0.0 5.6316524890201025 33.794522355976135 -28.208521906082996 0 0 0
5141 39 5 1.0 3.4857525274210768 47.373785803751886 -12.363758200138566 1 0 0
5142 39 8 -1.0 0.6616209203237231 47.307716689171066 -15.082834470530251 1 0 0
5429 41 7 -1.0 20.157659795241763 69.43714871284806 -14.00922353619598 0 0 0
6756 51 15 0.0 1.1701044273317 66.4989932620284 -30.90031610006821 0 0 0
7090 53 2 0.0 35.93635505498911 70.6777748403771 -13.192862378056233 0 0 0
2872 22 14 0.0 36.42252333725075 64.3451371903371 -21.047852079084297 0 0 0
5410 41 8 -1.0 28.856235076876143 50.01248456265227 -30.916803897680367 0 0 0
2864 22 7 -1.0 26.709959718762356 57.31455061928793 -15.673864415804022 0 0 0
2603 20 15 0.0 14.204689546208783 48.951358312978144 -22.5633861769545 0 0 0
2873 22 15 0.0 33.9266013990174 61.349323743452246 -21.83002267211182 0 0 0
6751 51 1 0.0 3.264854609296776 60.839225658811074 -26.942577277156254 0 0 0
6773 51 2 0.0 11.6242968622498 61.62412916256313 -30.098328459986362 0 0 0
6772 51 2 0.0 15.138055529226305 61.844701443723494 -29.36662448364804 0 0 0
2865 22 17 0.0 27.48169773717448 58.36951514901879 -12.510251618259234 0 0 0
6362 48 14 0.0 0.4700212694542192 52.87839013298779 -22.73941250739028 1 0 0
2870 22 2 0.0 36.3141960481242 60.31126794970237 -16.56546950531988 0 0 0
2867 22 2 0.0 28.75618341071842 63.86229846856795 -14.443365019071754 0 0 0
6768 51 2 0.0 19.8927752451905 52.69081959346611 -28.619859293553862 0 0 0
6775 51 14 0.0 11.584241192637394 61.67357300543367 -23.66898280083466 0 0 0
6774 51 2 0.0 10.75838554875112 59.642477344711935 -27.078481084901213 0 0 0
6753 51 15 0.0 1.6144836656274717 67.9951024584771 -24.105438921376408 0 0 0
6776 51 2 0.0 10.66343323942842 64.53516571385678 -21.369431423522144 0 0 0
2598 20 5 1.0 19.922145070139294 50.24394733696024 -19.71939558131105 0 0 0
6769 51 8 -1.0 19.308413307117046 54.95887052883695 -25.617650076734925 0 0 0
6771 51 5 1.0 18.617069400318357 60.91236092003406 -28.575638176293367 0 0 0
6770 51 2 0.0 17.810816953730473 58.58123755434066 -25.541221289825295 0 0 0
6777 51 2 0.0 13.817210867070123 65.71122325049704 -19.307684057948446 0 0 0
6778 51 17 0.0 11.518316739340937 68.01501844407153 -17.546559378033912 0 0 0
6752 51 6 0.0 2.531569927523363 64.31232283571461 -25.280885397218487 0 0 0
2597 20 2 0.0 23.414469251960124 49.62942495733877 -21.407897756512384 0 0 0
4243 32 2 0.0 19.415845623546094 59.47509735314328 -20.839664835615995 0 0 0
4244 32 9 0.0 20.440974732538596 59.45503035414824 -17.406101725774413 0 0 0
4245 32 17 0.0 20.654568926089414 62.3858252139487 -15.02014643128312 0 0 0
2599 20 2 0.0 17.389136626919647 51.8904512265018 -17.485955806696225 0 0 0
2601 20 17 0.0 10.761169635312404 52.44617807324329 -19.078123895776912 0 0 0
2600 20 2 0.0 13.866946312970434 51.237373241994554 -16.984214327091767 0 0 0
2602 20 14 0.0 10.791019820471629 50.73098690965619 -22.734710782596398 0 0 0
4241 32 2 0.0 22.23211394119503 64.17364269778658 -22.89359107951655 0 0 0
2596 20 14 0.0 25.553257887096272 49.457070763750274 -24.321331280205104 0 0 0
4242 32 7 -1.0 18.747853323678715 63.64968855650929 -21.989518617528123 0 0 0
2876 22 2 0.0 35.51690604575955 54.70321173546674 -27.90497754030544 0 0 0
2874 22 8 -1.0 32.789705245494545 59.249235237172726 -24.78900003461021 0 0 0
2875 22 5 1.0 34.808584252570014 58.504305085462164 -27.841245647359226 0 0 0
5411 41 5 1.0 29.109851077256554 53.68440092782004 -30.276340882264954 0 0 0
2858 22 2 0.0 35.53652300369821 64.47051138898429 -28.45713385379864 0 0 0
2859 22 2 0.0 32.54063191085943 66.13418290541708 -26.592257419549078 0 0 0
2857 22 2 0.0 33.249013323502574 62.872799555881095 -30.956729434010306 0 0 0
2861 22 2 0.0 29.39893364595033 63.869816798654035 -22.4281305566658 0 0 0
2862 22 2 0.0 28.006196453149347 61.345026236156876 -19.753794577471464 0 0 0
2860 22 14 0.0 30.043298592654743 67.43288749298004 -23.53209678484823 0 0 0
4248 32 2 0.0 19.86283587478129 55.78549877259518 -12.194856286348493 0 0 0
2863 22 17 0.0 29.484682322649427 58.0260092686008 -18.2310421518504 0 0 0
2869 22 2 0.0 33.16365146616306 62.20700942654877 -16.966594361466573 0 0 0
2868 22 5 1.0 32.08349019008664 65.43832998435198 -15.62905433957679 0 0 0
2877 22 2 0.0 36.38076326883414 54.76331998154439 -23.940943473270153 0 0 0
4239 32 2 0.0 18.600988481967864 67.86241300716976 -27.028910581306487 0 0 0
6361 48 17 0.0 0.24052063787478323 54.42046503561874 -26.2108050847744 1 0 0
4240 32 8 -1.0 22.2018619793283 67.1893049881128 -25.74628755176826 0 0 0
10945 82 8 -1.0 35.657450420122075 71.69599032463307 -25.344956259788137 0 0 0
10946 82 5 1.0 35.89295089429422 70.8964279200112 -28.649954165736347 0 0 0
7091 53 2 0.0 36.072580473326056 70.93409234634687 -17.111854494078287 0 0 0
6779 51 7 -1.0 12.733648221778745 71.41841122868583 -16.435002208330758 0 0 0
7088 53 17 0.0 30.037973733955056 71.59471480898956 -13.52614536150715 0 0 0
12188 91 15 0.0 32.08808330854255 20.596701723181653 2.4433279228525424 0 1 0
2624 20 9 0.0 2.111150453965662 20.6732586595509 7.111915907938921 0 0 0
2623 20 2 0.0 4.453051034676092 23.26479224730972 5.606326753487254 0 0 0
9730 73 8 -1.0 36.54954186482999 2.2602925182087192 0.17325832420240447 0 1 0
10 1 8 -1.0 11.821305803624645 2.1869224176086433 -2.8840577491300814 0 0 0
9 1 5 1.0 13.916100683875584 3.082822608764541 -6.331214675309362 0 0 0
297 3 2 0.0 14.943330839295424 22.03494756598426 6.912155213365743 0 0 0
14 1 15 0.0 2.860435829469232 1.2732641488294507 3.411574273995046 0 0 0
285 3 2 0.0 23.123898567219094 5.070712718315984 -10.163228952465573 0 0 0
12184 91 2 0.0 26.223120981890407 18.422358307184908 1.6425869668142368 0 1 0
12043 90 17 0.0 3.0917160438253735 0.5278084203721936 -11.014587645367905 0 1 0
12044 90 7 -1.0 5.801977266107651 2.0527748505923067 -8.777549979032491 0 1 0
1351 11 1 0.0 15.214733057188171 21.680220265010437 -11.412038434374233 0 0 0
1353 11 15 0.0 10.544555003722104 17.997882922363 -12.128541515848335 0 0 0
1354 11 6 0.0 7.490468191394068 19.34053657200715 -10.292795738203427 0 0 0
12195 91 2 0.0 37.24087527424122 14.273307379107687 1.5708880387162474 0 1 0
296 3 2 0.0 16.32817014939123 18.51667888734324 6.045970878516212 0 0 0
13387 100 2 0.0 5.521970638611202 14.03912666525712 3.0472438043724375 0 1 0
15 1 2 0.0 4.344913677096185 4.411607683879761 1.519413188940986 0 0 0
12048 90 5 1.0 1.1217074833752094 9.530483246809695 -1.3975373426958773 0 1 0
11 1 5 1.0 8.445860410919344 0.8479326802307684 -1.0511736117650687 0 0 0
13388 100 2 0.0 5.151773003838782 16.0152336554844 5.6919584405188655 0 1 0
1357 11 15 0.0 0.2393792379064448 21.996804615888795 -3.9233775126153874 0 0 0
288 3 2 0.0 19.6346739218118 11.848314392523571 -7.9646211061607834 0 0 0
12181 91 14 0.0 29.614860006534485 10.262919320289221 2.666364942237658 0 1 0
12178 91 17 0.0 30.96323591035933 10.714614599192421 -7.286893350129986 0 1 0
12189 91 8 -1.0 32.26108287356148 19.318091708849195 -1.2826966756744793 0 1 0
8 1 12 0.0 14.576895982453404 0.9718860038593687 -9.296662260788471 0 0 0
12191 91 2 0.0 34.60366585027186 15.435397822511591 -6.227573095515064 0 1 0
12047 90 2 0.0 4.137271206122975 9.040818253324044 -3.766587021957956 0 1 0
12180 91 17 0.0 30.256783820233963 8.233810266492368 -0.45991438089857134 0 1 0
12190 91 5 1.0 32.49357476627035 16.0879042358318 -2.965215690451549 0 1 0
12179 91 7 -1.0 30.332388647999853 10.80629348657012 -3.518515347412183 0 1 0
12182 91 2 0.0 27.980384451249286 13.348634746776982 1.164539439604851 0 1 0
9731 73 5 1.0 33.18850904578377 1.6711405604213292 2.3853139663932517 0 1 0