LAMMPS data file via write_data, version 10 Mar 2021, timestep = 8504000

8505 atoms
40 atom types
8442 bonds
1 bond types

0 100 xlo xhi
0 100 ylo yhi
0 1000 zlo zhi

Masses

1 131.2
2 57.05
3 128.2
4 101.1
5 156.2
6 71.08
7 115.1
8 129.1
9 163.2
10 99.06999999999999
11 113.2
12 128.1
13 186.2
14 147.2
15 87.08
16 137.1
17 114.1
18 97.12
19 103.1
20 113.2
21 131.2
22 57.05
23 128.2
24 101.1
25 156.2
26 71.08
27 115.1
28 129.1
29 163.2
30 99.06999999999999
31 113.2
32 128.1
33 186.2
34 147.2
35 87.08
36 137.1
37 114.1
38 97.12
39 103.1
40 113.2

Atoms # full

5590 53 14 0 24.268561393097812 10.024696556470358 140.31339302540857 0 1 0
4619 53 15 0 36.38854937631029 0.1380748327839183 121.70780202281796 0 1 0
5360 53 2 0 32.39517095627111 4.13643394457139 139.85290734424265 0 1 0
5359 53 14 0 32.74719473528511 1.398665758230578 137.4925826832826 0 1 0
1981 48 15 0 36.18743516012229 10.162708772668795 133.793879314243 -1 1 0
1979 48 2 0 37.493344520957706 4.834957020085018 134.0444153268977 -1 1 0
1980 48 2 0 34.58350081598724 6.800921148383923 133.45987464850967 -1 1 0
1978 48 14 0 40.42992346104314 3.1597366257592348 135.89542159235268 -1 1 0
1859 48 5 1 38.130714804588685 10.04677400570571 140.72428392973117 -1 1 0
1860 48 2 0 36.102906882945966 6.890459543954534 139.35414228127576 -1 1 0
1982 48 3 1 38.79402397315986 12.987417278072115 134.6684449112494 -1 1 0
2124 48 2 0 37.969883475238596 16.286594161301615 136.52800806505573 -1 1 0
2199 48 2 0 37.599289442561975 18.728823029963937 139.63247688146092 -1 1 0
1861 48 2 0 38.62527482744647 3.8698580433033576 139.27462577008163 -1 1 0
4620 53 15 0 35.41035813540761 0.9746041590615737 125.37586981502142 0 1 0
4621 53 12 0 37.70911571904769 1.509958879971957 128.86505248354808 0 1 0
5588 53 2 0 30.302115197624122 7.984539333017906 138.91073279390318 0 1 0
5589 53 2 0 27.535222895986028 10.170796324725277 138.47721934202005 0 1 0
5272 57 15 0 47.054269755492975 0.8939556622231496 137.51875679674146 -1 0 0
2384 48 2 0 33.487941280654255 31.700486717599244 140.3212259923887 -1 1 0
2200 48 2 0 37.85612901496209 21.775426391730136 140.8340104148348 -1 1 0
2385 48 15 0 36.76055485281434 32.86160925673368 140.28397902256236 -1 1 0
4923 14 2 0 45.18880343927145 65.03548710410752 140.7513652991889 1 1 0
4167 14 18 0 46.456425589243494 49.4778605108852 136.50042002153364 1 1 0
5280 14 3 1 42.025194182021444 62.75527718532391 135.00974627817237 1 1 0
4926 14 5 1 41.27431487884098 59.769582266392035 137.68018408168373 1 1 0
4161 14 6 0 44.74951446027049 53.92584848890352 138.97083617246895 1 1 0
4166 14 3 1 43.32835127223017 51.65588805387504 136.36275538089055 1 1 0
614 59 12 0 21.555894116144025 14.337889520804667 145.02833197661982 1 1 0
254 59 1 0 15.19832108130169 17.041378980735708 152.56953540546837 1 1 0
257 59 6 0 16.45897868368472 8.985583157832954 152.40812580478087 1 1 0
256 59 15 0 18.79638421255791 12.433113266026746 152.17954578365175 1 1 0
255 59 6 0 15.920993366182907 13.676984077896094 150.78354245571393 1 1 0
613 59 15 0 21.118214103272642 10.700030625477659 146.4369582941188 1 1 0
258 59 15 0 16.244890575587032 6.431563898061483 149.18779549261825 1 1 0
612 59 15 0 19.354923222143174 8.042333178277273 148.21585189493558 1 1 0
615 59 5 1 18.775905265507692 16.43316768044031 143.8520787215451 1 1 0
1355 57 2 0 24.282970751318427 9.130278339525931 158.7776945808969 -1 0 0
1558 57 17 0 24.75639635417215 13.332331406390844 154.5679271827703 -1 0 0
1404 57 2 0 22.494183499463215 10.48978360250431 155.7943093175386 -1 0 0
2148 8 9 0 3.2784203481767027 16.42559216226433 152.13953513467513 0 1 0
2147 8 2 0 3.375928071059232 15.854982578986796 148.2838494426098 0 1 0
2146 8 2 0 2.572620375076301 19.506910212389844 146.39773020998948 0 1 0
616 59 2 0 21.149634111957255 19.226299184621197 145.50912408905504 1 1 0
3325 46 14 0 23.048220627775308 2.0702324856733294 159.95763683364083 -1 1 0
2149 8 2 0 1.1351164049640583 14.834395420206961 155.07447549061416 0 1 0
3326 46 2 0 21.916669962241244 0.9774258264035257 156.67513290273016 -1 1 0
1836 8 14 0 5.449485323699736 19.608270212728982 157.77914228408284 0 1 0
1824 8 2 0 3.27802732704293 21.640429127964662 160.44477245221498 0 1 0
3327 46 18 0 21.604168762697224 0.09581395381790969 152.79729382321244 -1 1 0
5584 46 2 0 46.53638104419771 10.808171715293028 152.25708883788522 -1 1 0
5361 53 2 0 31.24087288437602 3.915106029871738 143.47592641259422 0 1 0
1858 48 2 0 37.70495020362001 7.760940863128143 143.57185013995272 -1 1 0
5362 53 2 0 32.156491356043134 7.162930079404983 144.9195073705212 0 1 0
5587 53 2 0 31.052784627092976 10.819912821552222 141.79770202850926 0 1 0
5470 53 5 1 31.95651539570236 10.87512685691501 145.59450540606213 0 1 0
1787 48 15 0 40.597249920520376 6.988696345243142 146.1006042122827 -1 1 0
1641 48 2 0 49.67278947613168 1.8133953515225678 149.30950246432522 -1 1 0
5586 46 2 0 42.14491368754555 12.710692462243449 150.29224178838626 -1 1 0
5591 53 2 0 25.45676390952531 9.545769108718472 143.87899722542932 0 1 0
1644 48 14 0 44.06754027742127 6.619977216116904 145.40591550411122 -1 1 0
1561 57 14 0 32.2041549725259 19.73243605426314 152.2841945275409 -1 0 0
4554 57 2 0 45.95142538419141 10.559748042500633 159.06829729990648 -1 0 0
4555 57 2 0 43.4208901036828 9.506667705429745 156.45384874630636 -1 0 0
1560 57 17 0 30.89955619628994 16.91083893502498 154.4645414579595 -1 0 0
1559 57 7 -1 27.12544932484686 16.160481790206482 153.10206292553272 -1 0 0
4556 57 9 0 41.09282126595404 6.690497472630184 155.19628130765935 -1 0 0
4557 57 2 0 40.08781384709715 4.7452137795679175 151.98467010047176 -1 0 0
8500 57 12 0 49.63387768110629 11.362732432321046 158.63490377839062 -1 0 0
5808 46 17 0 39.680078826716795 16.053234119430588 154.20519275881608 -1 1 0
1643 48 17 0 46.714077950877375 4.84212845610689 143.66778964383096 -1 1 0
5807 46 2 0 37.93988442539535 18.575303487598894 151.67726673614277 -1 1 0
5744 53 14 0 29.284339374610177 5.187808137744534 157.76384895880645 0 1 0
5640 46 2 0 39.42635858783706 16.24431932676612 148.9526597770688 -1 1 0
1640 48 5 1 46.019558512818946 1.700887718401341 151.0218771803488 -1 1 0
5978 46 17 0 38.057495578030434 15.645548937183388 159.88266556336774 -1 1 0
5743 53 17 0 28.183053066395754 7.929864638397979 155.11714383254912 0 1 0
5637 46 14 0 41.10972504684106 13.762612577717402 146.83177094371896 -1 1 0
5741 53 17 0 26.14346254160427 9.342139457849006 149.75186029888272 0 1 0
5594 53 2 0 25.674563675755394 7.083241847017033 146.87645238580504 0 1 0
5742 53 7 -1 29.320015148363094 9.557044235715816 151.8440675535219 0 1 0
5746 53 2 0 30.42058227527736 3.293240256734822 160.9885037367627 0 1 0
4558 57 2 0 39.39777053654333 2.527757497481835 148.70766421086657 -1 0 0
5811 46 14 0 44.733028750867014 20.08432656358089 160.7538298604765 -1 1 0
5810 46 17 0 45.0241750682894 16.552924443208617 159.3612207738639 -1 1 0
5809 46 7 -1 43.14497842299744 16.16542719322818 156.241508714787 -1 1 0
5123 55 3 1 32.1720843789632 1.4224147612566855 152.17321881261248 -1 2 0
5469 46 5 1 48.33321479916411 14.261920817830232 152.11295264785613 -1 1 0
5979 46 14 0 36.51029209693788 12.336868619786305 158.5869359132336 -1 1 0
5111 55 15 0 37.8394689444559 3.3880080843841394 159.8855495144998 -1 2 0
5110 55 2 0 41.602262486944966 4.343725641795804 159.95408903832995 -1 2 0
6159 46 2 0 28.273532531551773 15.455175423288834 160.33185043086414 -1 1 0
6330 46 14 0 29.591920086424505 20.966721790965032 160.92264988539287 -1 1 0
4906 57 15 0 39.38822676836721 1.4675076717958324 145.05197138433292 -1 0 0
1908 57 14 0 47.853518468575835 21.130659348928848 144.77473292150822 -1 0 0
5112 55 2 0 34.80761937490933 1.418668355786117 159.1105751210331 -1 2 0
1642 48 2 0 49.346249289036244 2.263724552731563 145.59681150915588 -1 1 0
1639 48 2 0 45.50546614212354 0.8128589093393166 154.78038124809854 -1 1 0
5113 55 5 1 34.80120686824751 1.5023291001661636 155.2238170069022 -1 2 0
5271 57 2 0 46.476722919195005 0.13875941245072726 141.2533915646701 -1 0 0
5585 46 2 0 43.55824397315005 9.375919409479154 150.5660101257347 -1 1 0
5367 55 14 0 28.781452371598753 2.6988985938356667 150.84704724096636 -1 2 0
4907 57 15 0 35.86697668215804 0.16535764142291498 144.79082440046432 -1 0 0
997 59 15 0 17.876010245257678 26.302370904550525 154.03411371216058 1 1 0
1923 8 15 0 3.914188680957688 28.125684777137845 155.48164200712287 0 1 0
1935 8 3 1 6.376845399083261 25.836880387304664 153.39634198812567 0 1 0
1934 8 2 0 6.90475302093015 23.958771165303517 150.28927649082678 0 1 0
994 59 3 1 21.144159755304866 22.629177056293113 147.22900289669096 1 1 0
998 59 2 0 18.319275791267245 26.26835023283524 157.9967226218619 1 1 0
6488 46 2 0 21.13650666207833 38.433776140313505 154.3645901502654 -1 1 0
995 59 15 0 17.60242483382023 23.800755192038554 147.6732793938459 1 1 0
996 59 2 0 15.865692310396643 26.078753130917875 150.79447143433197 1 1 0
6490 46 2 0 14.543993602056837 37.61244895221794 153.68675131239382 -1 1 0
6646 46 2 0 13.325195305535622 35.4828862085413 156.8119953464658 -1 1 0
6647 46 15 0 11.915442180984074 37.872862340407245 158.99949069555856 -1 1 0
6487 46 2 0 23.742115780938796 41.38854045661411 153.26801967665082 -1 1 0
6489 46 9 0 17.55736615047946 39.78018378105046 154.23444829892074 -1 1 0
8157 3 2 0 17.132515525380356 37.44317029725446 159.08301779410897 -1 1 0
8143 3 2 0 20.584827745588562 38.64745064533272 159.20707126859625 -1 1 0
2145 8 2 0 3.791794466704892 22.204915886219595 148.67400965757594 0 1 0
8306 3 2 0 17.30666419610226 43.13309545941112 159.4933428780796 -1 1 0
1922 8 2 0 2.6877692487455205 25.80596351314651 157.88364144864613 0 1 0
25 3 9 0 3.2086127736426 43.03424791184404 156.5356800243242 -1 1 0
26 3 2 0 3.214190320540135 43.36458386884175 160.53366957917777 -1 1 0
1921 8 2 0 3.313165874954359 22.417965873079307 156.2376310183443 0 1 0
2202 48 9 0 31.58547857560232 24.86962972785447 141.61020070764255 -1 1 0
2201 48 2 0 34.13066938421043 22.152598436785183 141.94558252290958 -1 1 0
2203 48 2 0 33.94512778143063 28.212034673716577 141.50593630173594 -1 1 0
2386 48 2 0 39.21344708302659 35.329474307488766 141.82381936667636 -1 1 0
1567 57 2 0 32.96643990208456 23.299580521712315 152.14420856267992 -1 0 0
6486 46 2 0 25.82898912017511 38.26679709542443 153.90365847579156 -1 1 0
6334 46 3 1 27.54313329125057 30.961006252432572 154.62814428470335 -1 1 0
6342 46 2 0 26.0228126724517 34.50230621525943 153.45679165410857 -1 1 0
6333 46 15 0 26.282500416255736 28.251545440925618 156.7181344093538 -1 1 0
1726 57 14 0 42.75736722487362 28.662577563488473 144.27746751260577 -1 0 0
1820 57 15 0 42.66329633373326 27.66788388664349 147.84393900785273 -1 0 0
1722 57 5 1 35.45748353501241 26.636950006822907 151.299481368221 -1 0 0
1723 57 2 0 37.07209594821425 28.28454506550961 147.96184478123763 -1 0 0
1724 57 2 0 37.83929964155567 31.218871151074257 145.47561748934314 -1 0 0
1725 57 17 0 39.08853190777866 27.753383868524494 143.4222269341789 -1 0 0
1821 57 2 0 41.84338595934291 25.040303684513162 150.54161390589144 -1 0 0
1900 57 5 1 43.90284816569081 21.9852318070374 150.10008505145356 -1 0 0
2388 48 2 0 37.08459879985049 38.92923085153818 147.01197745310736 -1 1 0
2552 48 9 0 33.64919842169788 38.10934939517462 148.36477631792337 -1 1 0
2387 48 7 -1 39.178587717996294 38.160684734095774 144.07532700923545 -1 1 0
3166 55 17 0 41.05233436520689 31.243851743148756 152.03607513918155 -1 2 0
3171 55 9 0 38.60737118549463 33.88866959081762 153.4599369602801 -1 2 0
1901 57 2 0 46.474415071394986 24.839232389948442 149.65022003026306 -1 0 0
2553 48 17 0 30.827101529764736 41.07104611371483 148.83924932676464 -1 1 0
3173 55 17 0 43.02194435405073 37.035066528478666 157.23034168027792 -1 2 0
3172 55 17 0 40.19446386551333 37.249084952444555 154.4898745942381 -1 2 0
3174 55 12 0 45.94463542556512 38.572165344156176 155.2587342457541 -1 2 0
3039 55 2 0 41.334100981653165 28.545507968223145 155.06306726968978 -1 2 0
2131 55 2 0 45.49808924454545 33.547677231619716 159.8093875327844 -1 2 0
3175 55 15 0 48.03456709170214 39.92390615406041 157.8229748442756 -1 2 0
6331 46 2 0 27.822809137907424 24.203891043899965 160.21051129094064 -1 1 0
6332 46 2 0 26.32224846191294 24.41089730783462 156.69503632839687 -1 1 0
3006 55 14 0 38.59652021304678 28.232859314442997 158.0008842916665 -1 2 0
2308 55 2 0 35.47119178563301 38.77180438072831 159.9443130472654 -1 2 0
1902 57 2 0 49.35697533496129 22.381942685858778 148.2157257264127 -1 0 0
3812 14 2 0 40.21994197076151 42.45789099704616 148.0044470052251 1 1 0
2134 55 2 0 37.64113331905308 35.82796851920036 159.04361418645007 -1 2 0
2130 55 2 0 48.7912563296959 35.23903241764487 159.42275285431552 -1 2 0
3005 55 7 -1 36.15294545662234 28.171633324098355 160.7945792985177 -1 2 0
5093 46 15 0 48.24670278185902 31.17363003433755 151.14658369582332 -1 1 0
5092 46 2 0 48.25630016303568 29.273090464089428 147.79092746379877 -1 1 0
3214 48 9 0 10.416938986671704 45.793255417964964 154.764169410438 -1 1 0
2727 48 14 0 22.450559912581156 53.70166060630644 154.51288351914775 -1 1 0
35 3 12 0 4.5502990134480505 52.69769078492614 161.03266264480308 -1 1 0
3213 48 17 0 8.972962703880214 49.36585829466548 155.48333104506318 -1 1 0
3216 48 17 0 16.081947585914442 45.68079843770278 149.6005749479749 -1 1 0
3217 48 12 0 15.456327433175442 45.179874769789244 145.82246272172753 -1 1 0
3215 48 17 0 13.371908838930274 44.9866385800654 152.22213257442414 -1 1 0
8308 3 9 0 16.36288173630697 48.67187805287972 157.37575198514435 -1 1 0
8307 3 12 0 19.31925435634149 46.27971427636224 158.02972741324547 -1 1 0
3912 3 14 0 15.703071675855593 50.747735979008596 154.51676208113417 -1 1 0
4087 3 6 0 12.77098037241917 51.932428436158695 152.53919444026823 -1 1 0
4088 3 3 1 10.437828200478673 54.78891323979852 150.7939306289557 -1 1 0
4089 3 18 0 8.304582574977436 54.98289885108511 154.06959635665478 -1 1 0
3674 61 5 1 15.341674236715429 57.89934023136695 157.02279346042013 2 -1 0
4090 3 5 1 4.641487193545168 56.29632309182321 154.23316651692596 -1 1 0
3675 61 15 0 12.473877988703109 57.7605511422527 159.71910038511993 2 -1 0
2879 48 2 0 21.678971968626765 51.27717549078787 159.99657835177243 -1 1 0
4091 3 17 0 3.801672859402213 54.62577646551867 157.87961836504508 -1 1 0
3673 61 2 0 16.316679573213428 61.53535217623945 158.44725597427006 2 -1 0
2878 48 2 0 23.74218775180737 51.10602567541788 156.94544397699966 -1 1 0
3380 48 15 0 13.48036540063425 47.43649519965974 143.83956791213774 -1 1 0
3588 61 2 0 13.350612130972076 62.59667250451182 160.22964102958798 2 -1 0
3587 61 14 0 9.82081634510882 63.56271018401482 159.53296931364744 2 -1 0
3381 48 15 0 9.61640685378841 46.747682105936725 144.69951451535346 -1 1 0
3051 48 2 0 8.36831797190803 49.50134436047264 159.21346067538911 -1 1 0
3456 61 17 0 6.012054662541069 64.01213782823575 160.20976433662423 2 -1 0
5 3 2 0 3.041343743633737 49.79670830682456 159.08218596221093 -1 1 0
3384 48 2 0 1.1235734326777918 45.21388454423148 148.78847889402468 -1 1 0
3383 48 14 0 4.601813396431618 45.78530629802278 149.08791293187906 -1 1 0
3382 48 17 0 8.248787216635598 46.07035664265752 148.03474429262653 -1 1 0
6 3 2 0 3.256289154105401 46.74111580359125 157.06198270785916 -1 1 0
3783 53 2 0 42.314464034895096 62.37206374116933 158.81938696629163 0 0 0
274 14 2 0 49.75360689178611 49.52491327231901 141.71379536796198 1 1 0
3971 14 14 0 47.418588018095086 55.700836660207806 141.08624634907414 1 1 0
3970 14 9 0 46.96219247901506 55.069347527369004 145.02778156728957 1 1 0
276 14 2 0 42.62897167619033 48.392776681274746 143.0780812650463 1 1 0
275 14 9 0 46.56085645078724 48.35363792276923 143.6356042493873 1 1 0
2555 48 14 0 28.30179057634466 47.40289446163027 147.23682173074442 -1 1 0
2554 48 2 0 30.269843376240523 44.70485830902065 148.57001586727102 -1 1 0
2556 48 2 0 30.141637854435423 50.86077465367899 146.24034874470897 -1 1 0
3813 14 2 0 42.22452652857588 44.50221113642403 150.11976719334982 1 1 0
1076 61 15 0 30.20175794932527 60.51928727871479 156.19607491081953 2 -1 0
1004 61 9 0 29.218832604941547 54.90579339462508 158.60429165213912 2 -1 0
1005 61 2 0 27.553360317021443 58.58282223375048 158.21642059121004 2 -1 0
639 14 15 0 40.252293820567125 55.7706847241209 144.61372530997355 1 1 0
277 14 2 0 42.0269737732573 52.05520182820889 144.39793292349697 1 1 0
2726 48 17 0 25.83144716662254 53.61117430422714 152.77311815388543 -1 1 0
2725 48 15 0 28.117716431210457 50.5162613383482 153.23113730411794 -1 1 0
640 14 15 0 42.27758122267241 58.367147623991585 146.33471675687264 1 1 0
641 14 15 0 41.37675418443789 58.746626089365584 149.79126484232734 1 1 0
642 14 15 0 44.03886515035768 61.30396224536301 150.2407572667796 1 1 0
2723 48 7 -1 34.439847377693724 49.741986175275336 150.60597434880032 -1 1 0
643 14 15 0 47.102453662084955 60.80241068256535 148.07058472687666 1 1 0
2724 48 2 0 31.73549217899897 51.46954379744591 152.6384815752096 -1 1 0
3679 14 15 0 40.58362048861396 48.26763383748897 148.26927488975534 1 1 0
3808 14 15 0 39.07405355909796 45.7602656567499 146.01063990159406 1 1 0
2720 48 17 0 33.55197622948123 50.894870342014976 147.27411272537225 -1 1 0
3678 14 5 1 41.77483176727894 51.14133332164306 150.66205625841323 1 1 0
3677 14 2 0 43.58364896086099 50.436592000420966 153.9369544841122 1 1 0
264 61 9 0 34.23280905660062 57.036278195373136 150.7436825109808 2 -1 0
265 61 2 0 34.652067206464416 60.989761305500465 151.2115907786443 2 -1 0
1019 14 9 0 48.077588044140555 62.88196050121265 141.1954755310108 1 1 0
266 61 2 0 37.38084205122859 62.217156070016905 153.54740758474725 2 -1 0
1008 14 15 0 48.84294716938775 62.30566336298939 144.65599465920016 1 1 0
3591 14 2 0 43.97174283861385 48.669142778517816 157.17851295041763 1 1 0
263 61 2 0 35.97985030196499 55.44581314237069 153.19088011074115 2 -1 0
1077 61 2 0 29.018294073221153 62.44607766869757 159.5092014662169 2 -1 0
3814 14 15 0 45.698677870692656 44.17741632913938 149.2162608618368 1 1 0
3590 14 14 0 47.238575704494494 47.201348044701454 158.34272222320934 1 1 0
3968 14 2 0 48.05630509899828 50.65615225616475 150.06229516322168 1 1 0
3969 14 12 0 48.01446048634059 54.241498457342566 148.66482254912512 1 1 0
3786 53 2 0 48.28940330061605 63.07932580494119 153.98213638085272 0 0 0
3782 53 2 0 40.30765120035687 65.26950712452798 159.50071687945012 0 0 0
4220 61 18 0 29.904939850170916 48.68803199987655 159.66799136086158 2 -1 0
623 61 15 0 35.216776574322985 63.37758649996288 158.1246808163872 2 -1 0
4222 61 17 0 36.14102898811064 47.83224113049674 157.818833545528 2 -1 0
4223 61 12 0 37.109878133097034 50.850621353547616 159.5297063589241 2 -1 0
4221 61 5 1 32.30365513421495 47.50901493556154 157.09614725626363 2 -1 0
624 61 15 0 36.22227738039924 60.132924846438826 160.04072953530164 2 -1 0
262 61 2 0 37.3467398257331 53.138735827068345 156.35500216469507 2 -1 0
3784 53 15 0 45.03263927252249 60.395979874512825 157.1596764578784 0 0 0
4924 14 15 0 41.80545360440413 64.510189835695 142.54647784290478 1 1 0
3785 53 2 0 46.043201721379255 64.15862475011053 156.85395426311342 0 0 0
4925 14 2 0 40.89245227432903 61.65221271963417 141.09863391695788 1 1 0
3815 14 2 0 47.700269980627205 43.75324523400384 152.50641860152413 1 1 0
4367 22 6 0 0.3064384022881857 9.991076445126565 169.2988068622206 0 2 0
1446 8 17 0 1.775498694732718 3.154357874438095 161.4725402109103 0 1 0
1200 59 2 0 16.81251851276865 20.871129326743446 167.67858610871787 1 1 0
4295 22 6 0 0.520337947615171 15.170905801456959 173.04751732724563 0 2 0
1241 57 5 1 20.38133956717084 12.266832416233726 168.2934072769255 -1 0 0
2658 46 14 0 2.0743295539850557 21.74970666095804 172.74169643428718 -1 1 0
1351 57 2 0 22.411015888565636 11.082162457340262 171.16951071083705 -1 0 0
5148 8 15 0 0.15374818781938046 6.974240096436556 180.0269526148899 0 1 0
2804 46 2 0 5.949869107613815 16.639349114272708 171.35772264836595 -1 1 0
2803 46 2 0 4.926468864750506 20.449730848859037 170.60773437315748 -1 1 0
2805 46 2 0 8.49327133815806 14.511400704021787 173.08142144273708 -1 1 0
2807 46 15 0 11.83961922240876 15.037970706365634 178.35492441191897 -1 1 0
2806 46 2 0 10.3742385846977 12.688481987148673 175.95115011066775 -1 1 0
2950 46 9 0 13.871392433479908 13.693627331496268 181.14911188911475 -1 1 0
1087 1 2 0 21.11743008981162 19.551304998303358 180.0326123071641 -1 1 0
1099 8 2 0 9.32347955547007 10.257863013991406 170.7287168110708 0 1 0
1097 8 2 0 7.420467813783642 12.30060047108393 168.4402457477272 0 1 0
1218 8 2 0 7.236181891220949 10.463149594542111 165.15458983238605 0 1 0
1224 8 5 1 6.94590235558479 6.733722438834715 163.7591394484039 0 1 0
2951 46 17 0 13.138477814202956 9.994205060218878 180.9111651578423 -1 1 0
5384 8 14 0 6.785644314273897 8.623650426268856 172.79767716900636 0 1 0
1094 1 2 0 22.64713782487309 14.285271268733775 178.9593068987251 -1 1 0
1088 1 2 0 19.673215029565633 16.64443230781576 177.85341705492561 -1 1 0
6482 45 2 0 6.259990922315695 4.129191883453365 181.05055030045287 1 1 0
6643 45 2 0 3.417271589051806 20.804151002044563 180.01154156612145 1 1 0
5166 8 17 0 3.365320000539888 7.173420128869053 173.6212984455369 0 1 0
5149 8 2 0 2.5638440846033657 6.627525156492662 177.27579170899668 0 1 0
6642 45 15 0 6.531027436982887 18.886261067230116 180.690945308937 1 1 0
1292 8 2 0 6.550366773234978 3.6705471845954354 165.7177348300511 0 1 0
2952 46 7 -1 11.992424445256498 6.410982068081527 181.02481985085075 -1 1 0
1276 8 2 0 4.069515353051199 1.800049065580516 167.37577544814107 0 1 0
844 57 2 0 7.463757478134294 2.0207762104525866 172.42376751165722 -1 0 0
855 57 17 0 10.491372545957427 4.036702312650896 173.46040506945175 -1 0 0
6481 45 2 0 8.493372522807798 2.7908806311460914 178.51834070593094 1 1 0
1223 1 5 1 23.719792071299544 10.807818158061389 178.46406179155002 -1 1 0
4296 22 15 0 2.1297953226837567 13.573438986526343 170.01661749213426 0 2 0
1140 57 2 0 13.176840053493512 10.046139635618951 168.46970548602525 -1 0 0
7405 49 9 0 24.22493669266063 2.688938466936509 181.08539879746021 0 1 0
3026 46 2 0 15.53947418308262 4.537804121739645 178.21363706450686 -1 1 0
3105 46 9 0 21.407972866468096 2.170042498569745 174.9304326361768 -1 1 0
3156 46 17 0 22.532921897115337 1.7332691257463357 171.33472445705297 -1 1 0
1139 57 2 0 15.089261634504332 7.251831910561688 170.5508933314183 -1 0 0
5173 8 3 1 0.1764899159537127 12.908592831038447 178.60233070444906 0 1 0
1141 57 2 0 16.51547513367961 11.765899615421766 167.24537131313443 -1 0 0
4396 22 15 0 1.2162487148773549 9.725735032143762 165.73137963969563 0 2 0
3099 46 17 0 19.27049047500035 3.6168755027887576 177.6232955223797 -1 1 0
1138 57 14 0 12.518978785622323 4.543548393758538 170.39156395750857 -1 0 0
1823 8 2 0 0.9091198458266386 20.056599755350707 163.26279020403337 0 1 0
7034 49 2 0 35.10596093179697 0.9373852221006034 175.1744678051514 0 1 0
1354 57 14 0 25.40892903713125 8.084220605375203 162.54350311985132 -1 0 0
3608 55 14 0 47.7388913711946 20.90244758108794 167.41006133010464 -1 2 0
5976 46 2 0 38.00422553272968 17.910767166356973 164.82514664325146 -1 1 0
5975 46 5 1 38.22914087443267 21.148630380777547 163.22569952103532 -1 1 0
5825 46 2 0 42.076245254840686 21.37621811462374 162.99746692309785 -1 1 0
5915 53 17 0 34.77198191453316 6.0328746140719876 167.72635940963406 0 1 0
1353 57 2 0 25.895538791158295 8.353497480803664 166.4732965410866 -1 0 0
1352 57 2 0 25.714467558762163 9.545706450388513 170.05688480183622 -1 0 0
6130 53 5 1 46.28613122811156 5.851221891989702 170.35078532629484 0 1 0
6047 53 2 0 42.685781453192405 4.477836938646818 171.0638873552326 0 1 0
6062 46 15 0 35.98862975657772 10.108276891634423 161.9589369831047 -1 1 0
5977 46 2 0 39.62018594617989 14.915553286107313 163.05791920336208 -1 1 0
6063 46 2 0 32.40739104015671 10.470862212918473 162.93311729203307 -1 1 0
6158 46 5 1 31.034547308561386 14.118107548128346 162.7981646236388 -1 1 0
4759 55 15 0 46.7000113082832 5.4761691000588035 162.01247417129048 -1 2 0
1273 1 2 0 27.094069800118646 18.0496762860801 177.93640989625285 -1 1 0
4625 55 15 0 46.24800024727992 12.246265781275726 167.52806578109832 -1 2 0
1275 1 2 0 28.44509521375891 17.660187040013952 171.10013609360922 -1 1 0
1293 1 2 0 30.613816590124237 15.389916109521037 168.18260800357385 -1 1 0
4317 55 9 0 43.6236518445801 12.31827701588405 173.25924591355007 -1 2 0
4316 55 2 0 46.77626843749776 14.286448003798222 174.40272952294023 -1 2 0
6160 46 2 0 26.837430208143214 18.367710296391298 162.2094979545226 -1 1 0
8385 55 12 0 47.609751099742326 18.429386776223197 179.71076278617988 -1 2 0
1274 1 14 0 26.867309741157257 16.95759525228945 174.40755599881328 -1 1 0
1458 1 17 0 33.745246935401326 14.97522517475799 169.1138015348014 -1 1 0
1459 1 7 -1 35.89035618767517 16.444267250195104 171.93842560962526 -1 1 0
4315 55 2 0 45.28409617858155 16.14999476783679 177.44652086037232 -1 2 0
4318 55 2 0 41.35183804499632 11.44713011696066 170.54199213580307 -1 2 0
5916 53 14 0 37.42740937973434 3.9668325847419834 166.47559776656658 0 1 0
5109 55 9 0 43.54050150266795 6.686972573529175 162.27899800448643 -1 2 0
4732 55 15 0 48.9835091911152 14.378760792350766 169.18448536860296 -1 2 0
5914 53 2 0 31.271668914467703 5.920026985363104 168.83590712303322 0 1 0
3761 36 2 0 40.712625247585606 7.373792336649013 175.52659875067906 0 1 0
6046 53 15 0 40.54120538488337 5.677183592898889 168.04493507000882 0 1 0
3762 36 15 0 41.84594228522975 4.1156646198161315 177.20284495994366 0 1 0
4319 55 2 0 42.44989386198399 12.012123383660077 166.90749637646852 -1 2 0
3763 36 2 0 44.433569770734074 5.42075851892747 179.8239738860388 0 1 0
1461 1 17 0 38.42033071765114 19.285938390593923 171.53924168931914 -1 1 0
1505 1 14 0 41.623240977211815 18.080766763310294 170.04009427340378 -1 1 0
1518 1 2 0 43.91055382613451 19.513859371645797 172.61623176607387 -1 1 0
1290 1 2 0 26.666843849964536 12.111279124159665 180.42875175544313 -1 1 0
1291 1 2 0 26.490283895121355 15.711070829771138 180.93962012677736 -1 1 0
3764 36 2 0 44.768556323786505 9.068132592326002 178.5073734899225 0 1 0
3760 36 2 0 38.54523431004855 9.933008815642696 177.5203617621836 0 1 0
5913 53 2 0 28.18107466244737 4.589358434946138 167.26175313848896 0 1 0
3157 46 17 0 25.877026548525677 1.2775829036480562 170.13171893278437 -1 1 0
5912 53 5 1 29.401599214096844 2.4383558047677067 164.48254409255046 0 1 0
6131 53 2 0 49.20698353111961 3.6961303618201597 169.3502801795041 0 1 0
4753 55 15 0 49.4267600195151 7.21840590791999 163.99998341693765 -1 2 0
1199 59 2 0 15.393722058994015 23.897117314229675 165.6286582195155 1 1 0
1198 59 14 0 17.785959470878993 26.4799394773356 164.0619828982371 1 1 0
1006 59 17 0 19.71375489834511 24.808911597151873 161.1708914372754 1 1 0
8305 3 2 0 15.226106468502662 40.25822849440957 161.12727867326063 -1 1 0
1271 59 2 0 18.46829137374616 23.904615443675684 169.39746420045387 1 1 0
1441 59 2 0 15.119161009431556 24.645330630911364 173.37820682721778 1 1 0
1442 59 2 0 11.374767039663622 24.28320231002824 173.79653413030098 1 1 0
1272 59 5 1 18.876214073655305 25.765845070739598 172.73021915001559 1 1 0
1443 59 2 0 11.324753997593684 26.76636828571957 176.6996636555523 1 1 0
1444 59 14 0 10.037543668001002 28.062355062931157 179.8307078763655 1 1 0
2297 46 2 0 12.296279770469392 35.364540494002114 161.92268589604848 -1 1 0
2298 46 7 -1 12.778533878916676 37.59974453808211 165.12938571358515 -1 1 0
2657 46 17 0 0.9250520592900898 25.623805810904603 172.96129040642523 -1 1 0
1204 13 14 0 6.11048597026255 38.73220876771528 162.59686501112668 0 0 0
2503 55 2 0 22.320965209189474 32.031457693187924 168.98141770383222 -1 2 0
1024 13 3 1 6.751253946041256 37.082524167862445 165.80932870922308 0 0 0
2656 46 15 0 3.7970178377843884 27.21929221213557 174.1560304313761 -1 1 0
2655 46 2 0 6.3119711774932075 30.440218088110534 175.20956790549093 -1 1 0
2654 46 7 -1 5.851907633230878 34.137368926887284 175.12441087588272 -1 1 0
2651 46 17 0 8.388387760646054 36.9773493831917 176.77470232084139 -1 1 0
4616 45 2 0 24.283436209375136 38.74023924183542 174.53123822332293 1 0 0
2487 46 14 0 11.829195482632423 42.74583268237481 177.53938111771322 -1 1 0
2488 46 2 0 11.628573220521513 38.99042599259624 177.23978496101086 -1 1 0
2486 46 2 0 14.287796105933179 42.749792416144125 174.56525296181422 -1 1 0
2485 46 17 0 16.524736471613583 42.35109558021514 171.87040167848545 -1 1 0
2484 46 9 0 16.49600436644066 39.08122806996919 170.43682859899047 -1 1 0
2299 46 2 0 15.274002446852668 39.95035244218857 166.70212306261521 -1 1 0
2814 55 2 0 22.29185095345736 32.948172409266895 175.60653661478528 -1 2 0
2813 55 2 0 19.47517834867191 32.0697652268543 178.23372940517066 -1 2 0
2671 55 14 0 16.467919165049835 31.829893867104417 176.81939303169892 -1 2 0
2667 55 2 0 12.718176687187253 34.52353392272612 169.2252295102291 -1 2 0
2668 55 15 0 12.505126607413617 35.36660381448738 173.15951274669808 -1 2 0
2670 55 17 0 12.815815200187727 32.79847048837278 176.03910759857118 -1 2 0
4960 45 3 1 22.224141435849752 41.38818223666462 176.45180964733393 1 0 0
2653 55 17 0 18.965310928926606 32.14701706043019 170.7112227249045 -1 2 0
2666 55 7 -1 15.303929525550444 32.00094902928816 169.43651806601747 -1 2 0
8156 3 15 0 22.637298782726607 41.20891224098684 161.6242306090521 -1 1 0
2502 55 14 0 24.3676303811661 28.970886298246032 168.35871215212222 -1 2 0
2312 55 2 0 23.49587354996725 35.763401336085145 165.2895844135597 -1 2 0
2499 55 9 0 21.310400856024366 33.761943932624604 163.2388985486991 -1 2 0
2500 55 17 0 24.096587270709687 31.625212254795414 162.39470925149826 -1 2 0
884 13 2 0 8.67546749663573 41.677773745354166 169.17373485343563 0 0 0
1010 13 5 1 7.157924337143832 37.85349754944074 169.32637698396013 0 0 0
8154 3 2 0 22.911109587553018 42.683846372278985 166.50731630983017 -1 1 0
4961 45 15 0 18.454420040798333 41.65690241320514 177.04344516188385 1 0 0
365 3 15 0 0.5812174394115204 42.36867331735572 164.746578551462 -1 1 0
342 3 15 0 0.48410475221781 38.93303850353723 169.23117555904048 -1 1 0