LAMMPS data file via write_data, version 10 Mar 2021, timestep = 8504000

8505 atoms
40 atom types
8442 bonds
1 bond types

0 100 xlo xhi
0 100 ylo yhi
0 1000 zlo zhi

Masses

1 131.2
2 57.05
3 128.2
4 101.1
5 156.2
6 71.08
7 115.1
8 129.1
9 163.2
10 99.06999999999999
11 113.2
12 128.1
13 186.2
14 147.2
15 87.08
16 137.1
17 114.1
18 97.12
19 103.1
20 113.2
21 131.2
22 57.05
23 128.2
24 101.1
25 156.2
26 71.08
27 115.1
28 129.1
29 163.2
30 99.06999999999999
31 113.2
32 128.1
33 186.2
34 147.2
35 87.08
36 137.1
37 114.1
38 97.12
39 103.1
40 113.2

Atoms # full

285 29 1 0 10.007715534361541 8.145867793820633 72.62661097321674 0 0 0
286 29 15 0 9.357698948871235 8.224264055252076 79.31054575450834 0 0 0
4272 29 6 0 8.88976167953289 9.833068982819505 75.6479414097132 0 0 0
4273 29 6 0 11.730580114989571 10.328119707307359 81.26235035941909 0 0 0
4592 29 15 0 10.612610386605102 3.5727952272215333 85.46530714727943 0 0 0
4591 29 15 0 13.718654955052921 4.225236324263215 83.50031196301074 0 0 0
4274 29 15 0 13.399318781467782 7.888398777052551 83.47889935081396 0 0 0
4939 29 5 1 4.905635250427843 8.710952662178459 86.15461508082878 0 0 0
4595 29 2 0 5.911293425427941 5.099447335653286 86.47172772969637 0 0 0
4593 29 12 0 8.258909169283925 0.4425921899577834 86.75288217369426 0 0 0
4594 29 5 1 4.747274135341411 1.837592932238948 85.13286250542546 0 0 0
4940 29 15 0 2.726142280773665 9.779478138796884 83.17037996291792 0 0 0
5551 29 14 0 8.746494037174141 9.817562466842245 100.82545318743935 0 0 0
5059 29 17 0 2.4120178760001356 6.172383336206237 93.07688642968871 0 0 0
5326 29 15 0 0.19412024763757546 3.780085360517823 95.27552424298227 0 0 0
5030 29 2 0 0.18151095396127354 7.44445785711179 90.24453647839138 0 0 0
5871 29 2 0 4.411448997069056 7.263515535951497 111.03384801981647 0 0 0
5872 29 2 0 1.508537440746567 9.667255205413342 110.68935246279716 0 0 0
5870 29 5 1 3.0621711873547017 6.157734438150945 114.6784816809733 0 0 0
5708 29 2 0 7.4432420256621965 11.74004808899989 106.11170176816357 0 0 0
5711 29 17 0 11.195077829642436 9.20673359665034 115.45716469986544 0 0 0
5712 29 14 0 10.460642305442486 5.83416013954162 116.86022906345475 0 0 0
5710 29 7 -1 9.960975724645033 11.516248744944594 112.3662312269406 0 0 0
5714 29 2 0 6.663626937594438 5.771347805944719 115.28565829154722 0 0 0
5709 29 17 0 9.858243782904982 13.067738327420063 108.71996254538801 0 0 0
5552 29 2 0 8.290469160198215 13.353506193120795 102.35645930086014 0 0 0
5548 29 2 0 2.6644928367574057 5.554304946406573 103.46106586271513 0 0 0
5550 29 2 0 4.8656819584332816 9.287008855860241 101.97973929403372 0 0 0
5549 29 2 0 6.271152828420708 6.98144721961677 104.79176731330702 0 0 0
4174 5 18 0 7.752721433955957 19.479958213707445 116.8096376814227 0 1 0
4175 5 5 1 9.631038186200056 15.857343348852513 118.02494352445272 0 1 0
4173 5 3 1 8.449118560060631 21.319875536420263 113.31693797805157 0 1 0
99 50 1 0 20.4201563592824 15.150784265566728 116.25714551766083 0 3 0
100 50 6 0 20.850954748574953 18.891518430385506 117.17563186160078 0 3 0
101 50 15 0 18.102309323091717 21.209529399284087 118.46019672492358 0 3 0
4229 5 6 0 7.557088810742137 25.15522770681397 114.32356200884674 0 1 0
102 50 6 0 15.692823105538968 23.05085202194625 120.82766728835149 0 3 0
4033 5 15 0 4.41825436885378 23.51508328894263 115.7865846179403 0 1 0
4032 5 9 0 3.085071261373221 24.20213697781574 119.21236723093652 0 1 0
6783 29 2 0 4.015028789762135 1.415600569972499 136.05648338620696 0 0 0
4176 5 17 0 11.220407345586032 16.024665326515972 121.51450023288754 0 1 0
6616 29 2 0 11.52829682322443 5.948273322621411 136.27809524302367 0 0 0
165 5 12 0 14.863837543471446 15.763537348286192 123.19790119825437 0 1 0
3807 5 2 0 11.039744603072505 16.892564068032673 128.3468150066827 0 1 0
6447 29 2 0 10.803924963894033 1.742913728044644 126.69263298860345 0 0 0
3820 5 15 0 11.390860916196132 13.272020998872781 126.92426508338043 0 1 0
3686 5 15 0 9.787568971034903 19.18773428141264 134.67588479365702 0 1 0
3682 5 15 0 7.390562152257839 18.951745788781857 137.73409902282665 0 1 0
3681 5 2 0 2.5722148774701195 18.03533627940554 138.49687355207104 0 1 0
3685 5 5 1 5.493244297546024 18.152711493123604 140.8990570492939 0 1 0
3806 5 2 0 11.05475223804886 19.788798754314904 130.95699639819836 0 1 0
4029 5 2 0 5.679043591169623 16.708188376824523 125.66965798456154 0 1 0
3872 5 2 0 4.169274848181502 13.426328971124653 124.82792887878065 0 1 0
3871 5 2 0 7.514976994945484 12.677620372080874 126.71520752071052 0 1 0
4030 5 2 0 6.075549632930037 19.58368539732453 123.04975641309936 0 1 0
2938 29 7 -1 14.371938478109172 14.254681946833752 139.42340704172378 0 0 0
6781 29 9 0 5.820922359512013 5.7638220559186975 132.58675892785044 0 0 0
2939 29 14 0 17.305047262994158 11.762434226812823 139.06917522998552 0 0 0
3030 29 2 0 21.312852148608723 10.634201373895227 138.884887358023 0 0 0
6617 29 7 -1 10.111515351276548 9.410882439629406 137.19219027704082 0 0 0
6618 29 2 0 7.357443535391795 8.491911399618283 135.0037470576604 0 0 0
164 5 2 0 15.14079702500625 17.969291519847037 126.12396475261548 0 1 0
163 5 2 0 17.319230052977392 15.408644539753327 128.08119016051708 0 1 0
159 5 9 0 17.757680065578814 16.88241996181042 131.6835595787129 0 1 0
3079 29 17 0 23.55171465455089 7.422682615123597 139.4967388237679 0 0 0
6782 29 17 0 4.514893755836424 2.0242322254698983 132.04419707761295 0 0 0
138 5 2 0 20.16336842481988 20.02525447603063 131.57015444552968 0 1 0
485 5 15 0 23.308617119165252 20.11102978399423 137.78356757369588 0 1 0
6704 20 17 0 17.619997661363907 4.673378229051373 141.44307604166283 1 0 0
6290 29 15 0 5.700449717855301 5.749325230713671 125.87700536887323 0 0 0
6614 29 2 0 13.416850474613243 1.2323083482712776 138.6204711020631 0 0 0
6289 29 2 0 3.652098688774465 9.022621181555865 124.72326802668343 0 0 0
6615 29 15 0 10.671518327845817 2.0752648218783363 135.9767528298709 0 0 0
6291 29 5 1 4.94956043117099 2.1665406720748757 126.09880953350181 0 0 0
487 5 15 0 30.22445200670174 16.079735219681123 129.2995309205662 0 1 0
486 5 15 0 27.50232911165877 14.524411177004906 131.21729256857017 0 1 0
505 5 15 0 25.362847713777416 17.454414957829467 132.2340494138725 0 1 0
3091 29 9 0 24.73754781293795 4.055412218658649 141.22786785046395 0 0 0
627 5 15 0 30.232171870536508 19.729669337790682 128.76664181595692 0 1 0
515 5 15 0 24.610941541910275 17.02896481833253 135.75545626182253 0 1 0
2086 50 5 1 36.380311131006714 19.942945650793693 141.33129718516815 0 3 0
4031 5 12 0 3.606846794764583 22.572724738351656 122.57361133512595 0 1 0
857 5 2 0 23.082786552747674 25.727412030340133 126.53185006920552 0 1 0
885 5 15 0 23.14604686337998 24.25204862543208 122.69792697288804 0 1 0
424 50 15 0 14.575638281461533 25.22609155272458 123.43986799919809 0 3 0
447 50 12 0 8.725395850822355 25.921925851429812 130.01911983118296 0 3 0
1013 5 5 1 22.895782924203594 30.861564130704 131.0757119556017 0 1 0
1014 5 14 0 20.247876802357965 29.482836437766483 133.80901610734637 0 1 0
446 50 15 0 8.479885392173724 23.980748528592045 126.69157325669698 0 3 0
445 50 15 0 12.097370941067194 24.017641277069806 125.91145466219947 0 3 0
160 5 2 0 21.41697281694914 21.361759613386898 134.85226696320132 0 1 0
1264 50 5 1 14.366818762281644 30.83348202187395 139.74284943364574 0 3 0
1386 50 2 0 11.73246278225648 28.131429043419057 138.73989917620423 0 3 0
448 50 5 1 11.724239538817912 25.902184986645803 132.32604411966832 0 3 0
1387 50 2 0 7.84912489985738 27.19042769079985 138.86022594009142 0 3 0
959 50 2 0 14.315437570779576 36.04145137411851 131.60915164139698 0 3 0
829 50 15 0 13.611239897738754 34.4369809921088 128.25416441234884 0 3 0
960 50 15 0 16.28642650979701 36.33677270139197 134.84635725802377 0 3 0
961 50 2 0 14.589974725051043 37.89716367730658 137.7854446662558 0 3 0
449 50 2 0 13.702624674289542 28.561451106561627 130.21645629422326 0 3 0
942 50 5 1 13.027650780998986 30.86865193875364 127.63569663500402 0 3 0
976 50 17 0 14.589894808709472 37.91522038392934 141.44440832384635 0 3 0
884 5 2 0 25.964766040891938 21.630679088160594 123.97201079127639 0 1 0
998 5 15 0 29.60170050847025 21.581166668962183 125.32736520367213 0 1 0
1917 50 2 0 24.677376747135007 27.162108071953284 140.98613956381755 0 3 0
1009 5 5 1 24.452559353577588 28.706512007183893 128.35987645136012 0 1 0
2936 29 15 0 11.193133602252267 15.768030179993596 143.860426105998 0 0 0
2937 29 17 0 14.207514165626042 16.72394881535715 142.092828289504 0 0 0
7126 29 15 0 8.976017657771745 15.81255079626374 147.23092947716327 0 0 0
6705 20 2 0 19.524383489999376 7.376850517148144 143.88045251871344 1 0 0
6706 20 14 0 21.825081592909633 10.637817042233047 145.16651070242125 1 0 0
6924 20 15 0 20.97823263715368 9.416115744530106 156.84995413208193 1 0 0
6922 20 7 -1 23.986070137768653 12.501801680239437 152.52684491547333 1 0 0
6923 20 2 0 23.333716806045487 12.477146572367495 156.18529704203536 1 0 0
6926 20 15 0 15.430944783569837 11.227758840112884 157.0149214952257 1 0 0
7107 20 2 0 16.854074107918397 14.404102763728705 157.82851577464612 1 0 0
6925 20 17 0 17.389898473841637 7.968473651778089 157.58827442813526 1 0 0
7124 29 2 0 9.813470145786825 9.493635096115385 143.58787402640417 0 0 0
7125 29 2 0 9.197193607668364 12.066368546722858 146.42583671693794 0 0 0
6703 20 9 0 15.28110714584458 3.261067114659548 144.19156767314792 1 0 0
7108 20 2 0 13.585143211932865 15.92309393511426 156.23692605756546 1 0 0
7268 20 15 0 2.4773879982941307 13.975381194603298 161.516610968875 1 0 0
7109 20 2 0 11.816823755872987 14.577277251370008 159.47396427750763 1 0 0
7111 20 15 0 4.587626711609095 14.183712992859135 158.0236844969085 1 0 0
7110 20 2 0 8.452580483389053 14.921325060164598 157.94747016639568 1 0 0
6941 29 15 0 6.138822155084227 3.5325347521479022 147.37109555133108 0 0 0
6940 29 17 0 2.5446236468892813 4.799948591943583 146.99623383934133 0 0 0
7123 29 2 0 8.880750036809106 5.883464751030669 142.4453080006268 0 0 0
7122 29 2 0 7.604125652190645 2.556040070305788 143.907840755972 0 0 0
3092 29 17 0 23.26190828284038 4.26099483905517 144.89111949696377 0 0 0
6380 20 2 0 19.536139335414695 0.6134814089546379 149.521711504092 1 0 0
6939 29 15 0 0.6952811110639311 1.6760149930229433 145.85294029131614 0 0 0
6228 20 2 0 20.655349092697374 0.5243645611150072 153.20767874702938 1 0 0
3645 21 5 1 12.879514828225854 0.36066576882124385 153.96189162737485 -1 0 0
3646 21 15 0 13.170545041066521 1.0708648770473126 157.81901949452464 -1 0 0
3644 21 2 0 9.157740746023357 1.0612902024846378 153.89181921863533 -1 0 0
3579 21 2 0 5.418453885054451 0.3644708603597977 154.5595750380929 -1 0 0
3647 21 15 0 9.905025663793461 0.39542607611777214 159.81498340227748 -1 0 0
543 29 15 0 42.84650216777308 19.055462492996025 142.20622940140586 0 0 0
192 29 2 0 41.617179987765674 18.401928875338772 145.97475101581668 0 0 0
190 29 9 0 40.479619628531054 21.053301780930006 151.4058353637962 0 0 0
6921 20 17 0 24.76689366434183 8.849513416036835 151.55872143025658 1 0 0
6707 20 2 0 24.36941379963193 9.163473988019833 147.64878776934083 1 0 0
2245 50 2 0 33.12684699606056 16.693552926387166 146.12104963238798 0 3 0
544 29 15 0 46.35050054729044 19.55933846976512 143.65092720242046 0 0 0
545 29 15 0 48.37717811829066 16.93431932650175 141.87343031064773 0 0 0
191 29 2 0 42.783416371769164 18.193207395793483 149.43039351155872 0 0 0
2085 50 15 0 33.20852322830418 21.331849209139314 142.14805470939297 0 3 0
2088 50 2 0 36.424628242416716 18.103367110974038 144.6511153358776 0 3 0
5860 20 15 0 35.75859666595878 6.257856592919689 152.42605687723164 1 0 0
6013 20 2 0 32.0312136827181 6.593685679331072 158.44890997589948 1 0 0
2247 50 2 0 28.797790843609587 17.43306673211465 147.81148582484997 0 3 0
2246 50 2 0 29.980632655300237 17.153876679517307 144.17434934124216 0 3 0
6089 20 5 1 29.560591239040956 9.014296570239965 156.6460734721618 1 0 0
5857 20 2 0 41.86398898099893 5.914069832945617 154.54286315983515 1 0 0
6012 20 15 0 33.95760186129026 4.955294157578873 155.4390887716384 1 0 0
5858 20 2 0 40.94109764466918 6.072720569478066 150.88135539714796 1 0 0
3423 29 3 1 37.45504235252031 5.581017187671986 161.7870536457524 0 0 0
5859 20 17 0 37.55643993547225 3.9410657925078167 150.2418530369785 1 0 0
6090 20 2 0 25.908597491254884 7.528343969772039 157.334492222163 1 0 0
3425 29 2 0 35.32413209860006 10.023584541663078 156.59079441551074 0 0 0
3653 29 5 1 33.82639033406345 16.342539591078875 156.41665756600486 0 0 0
5833 20 5 1 43.98085277425682 2.547019452713408 154.64521567812068 1 0 0
3424 29 2 0 37.31086223819658 7.105914598779363 158.44165826386322 0 0 0
3426 29 17 0 38.93091655612894 10.585845127329774 155.5991293071429 0 0 0
2248 50 9 0 26.40985655357258 19.725311920402707 150.0650753099342 0 3 0
3583 29 2 0 36.14274771809866 11.901143172665957 151.4612609875488 0 0 0
3582 29 14 0 39.884648872287286 12.137473429851592 152.27355039399185 0 0 0
3652 29 2 0 34.98523692134143 15.530956592159134 152.79925901102737 0 0 0
2249 50 2 0 28.168446307843613 20.84153324978654 153.3240541326404 0 3 0
3655 29 15 0 39.87396892524441 17.884823246815273 156.49126991541826 0 0 0
3654 29 15 0 36.410790544279884 18.827168316749127 157.81983729670557 0 0 0
3779 29 2 0 40.90823816677642 20.094927261011104 159.3156003941409 0 0 0
2413 50 2 0 30.800245390879876 20.758683023251553 156.0283206424392 0 3 0
821 51 5 1 44.797186533407874 13.842338921051873 159.7463460635834 -1 1 0
5668 20 2 0 46.31197542395171 5.702397014284226 155.23110451876954 1 0 0
3094 29 12 0 28.299669591018244 2.8122872359649707 150.5057852511033 0 0 0
6091 20 2 0 27.526671318872673 4.539035458976399 158.9260804741832 1 0 0
3093 29 17 0 26.74814145989192 4.423859143144582 147.0749257510859 0 0 0
6214 20 14 0 28.397660806459573 1.4787192811824574 156.99513463181077 1 0 0
5662 20 14 0 48.11588046835979 7.607631965547863 157.71327030126932 1 0 0
1172 50 2 0 16.691919856529655 30.61976651747207 145.90174840102992 0 3 0
1263 50 2 0 15.30501620263225 28.571973575681394 142.67618512604506 0 3 0
1171 50 2 0 15.878807235189322 34.224248471079825 145.53059004274735 0 3 0
1170 50 15 0 17.766695915284473 36.3458457623408 142.9066576798392 0 3 0
1388 50 2 0 8.58429068932559 27.883441093395255 142.8284848278319 0 3 0
1389 50 14 0 6.948349232150559 25.080661633614785 144.61275693581288 0 3 0
3835 22 2 0 5.111765503003981 28.177263109225958 155.20364052738418 2 1 0
1894 50 2 0 21.48994718126897 27.296331063156625 142.78206071000633 0 3 0
1815 50 2 0 21.67334526964127 24.40293081363695 149.365858531988 0 3 0
1717 50 15 0 20.93711564607372 25.75730548684841 155.09668688758754 0 3 0
1893 50 5 1 22.024363502287503 26.73196043459653 146.55821128687649 0 3 0
1814 50 15 0 21.834353507078326 22.80975900794493 152.49597731830585 0 3 0
1716 50 17 0 19.54857973229785 29.14841612324599 154.403350820077 0 3 0
1715 50 2 0 21.423368253952628 32.52857262404647 153.23360131671936 0 3 0
1714 50 2 0 18.928797816321023 34.57241554794061 154.70680174155777 0 3 0
1713 50 5 1 19.411881145171673 35.25457955925905 158.55042131096621 0 3 0
1547 50 14 0 12.530792551343719 33.49960858366624 158.64617007460876 0 3 0
1546 50 17 0 11.929560632994525 30.44824357550722 156.09895463045507 0 3 0
1551 50 2 0 15.596335536839513 35.69512096419258 158.03939018150643 0 3 0
1544 50 17 0 13.83551689583924 28.537184561508486 150.673760856321 0 3 0
1545 50 7 -1 10.721269754334397 29.551766636987313 152.51442788621193 0 3 0
1390 50 2 0 10.541889595453867 25.773331538549854 145.97615263812108 0 3 0
1543 50 2 0 12.377247687994469 28.997317529127653 147.33593296625733 0 3 0
149 13 2 0 1.1150034446334995 35.58762074776694 160.11281745235888 1 0 0
3708 22 15 0 5.611898689929 31.23578992982712 153.3245639531733 2 1 0
6126 60 5 1 11.676771612632692 41.21633737547957 160.12912956369112 2 0 0
6127 60 2 0 8.287198943347503 41.40231691004421 161.390810362632 2 0 0
3707 22 15 0 6.643938307488965 34.03928473104585 155.31139213564813 2 1 0
3706 22 5 1 5.962934204436796 38.08210843592464 154.06578116242167 2 1 0
6035 60 15 0 13.281490288954103 42.34204195141059 154.734337124763 2 0 0
3611 22 2 0 5.907929303838702 39.29160741165047 146.6317644981062 2 1 0
3499 22 17 0 2.0962108434819653 35.873108258007385 145.6049979938646 2 1 0
3610 22 14 0 4.3039805885954285 37.77499050541414 143.5455250307653 2 1 0
999 13 15 0 22.578414425788893 28.75626320995806 159.47008792285044 1 0 0
3705 22 2 0 5.162201783581481 39.02637337846919 150.3025617159959 2 1 0
148 13 9 0 1.2930194358300124 38.970755904274 159.5142312582337 1 0 0
3836 22 2 0 1.4830471002745629 28.057595317805717 156.25620327964643 2 1 0
2083 50 2 0 28.020921372999748 22.966361680771485 145.53310271280793 0 3 0
2082 50 14 0 27.713407492020984 25.65600896864899 142.6248212657093 0 3 0
2084 50 2 0 31.712499711245783 22.155435114077903 145.57626869589146 0 3 0
1000 13 5 1 28.677987010086895 29.28418527621813 159.1182971034488 1 0 0
888 13 2 0 25.501640380714225 30.98438362920901 159.8403948521092 1 0 0
4192 29 5 1 29.44961179966827 28.311730145459112 148.64151381550474 0 0 0
188 29 2 0 38.2094561957681 27.96815657432929 151.49236870516202 0 0 0
4193 29 17 0 32.0997991640725 28.05286325835172 151.41481903780436 0 0 0
197 29 12 0 34.83309719350131 28.882598965029338 153.67724087060643 0 0 0
4190 29 3 1 26.282866438413333 34.40881690136885 151.1188334011793 0 0 0
4191 29 18 0 26.587101104486884 31.298991143178753 148.7539489366524 0 0 0
3993 29 15 0 30.613466269719297 32.67368221676272 153.91810301108592 0 0 0
189 29 2 0 38.38990527199414 24.63475862983994 152.5145365779238 0 0 0
3992 29 9 0 33.45187050054941 35.406810524882005 153.27985560622264 0 0 0
3990 29 2 0 39.30270831454388 36.952530026965114 155.33497312179495 0 0 0
3989 29 2 0 41.21913873693925 34.328962610915035 157.0110941658202 0 0 0
3991 29 12 0 35.33598268940052 38.013590413481374 155.18690250887005 0 0 0
3842 29 2 0 38.66988557853 31.68982746767968 156.3397200789094 0 0 0
4181 29 6 0 26.769170098359254 33.125689053496146 154.91884872174623 0 0 0
1190 13 5 1 31.717017729251353 31.400201638317057 159.7843325694602 1 0 0
3841 29 2 0 40.195802839119985 28.478080344831927 157.6098275836875 0 0 0
1191 13 14 0 34.90603977893453 33.42001111502638 160.09669373416807 1 0 0
2414 50 15 0 29.84352088180631 22.042258115732352 159.5725838550955 0 3 0
3780 29 2 0 40.94536585179542 23.911013590114674 159.28151658104892 0 0 0
3840 29 15 0 43.15488276787816 26.654746365577886 158.80676952492533 0 0 0
6597 60 2 0 8.984121424617623 46.946866668075714 159.8824333624562 2 0 0
6596 60 15 0 5.732870169894877 44.5155375861698 158.7338003817413 2 0 0
1200 44 15 0 11.949095247064534 63.7953579833312 160.47614907498308 0 0 0
6272 13 15 0 0.6483995157433792 62.24343275671369 157.75460709087375 1 0 0
5908 60 17 0 14.587348685649395 45.195211336667796 148.4337680362889 2 0 0
6279 13 2 0 1.0454450020778034 56.06317998617858 159.11463832825268 1 0 0
7903 51 14 0 6.991239064916568 51.70899180520548 152.37857027415052 0 1 0
7904 51 2 0 2.8005824607976 51.315749332950205 152.1600735095148 0 1 0
8009 51 2 0 0.6577292809904125 48.71388181124961 153.8224845026763 0 1 0
7843 51 17 0 10.181617409032679 53.33140472817656 151.43521393277206 0 1 0
5732 60 2 0 16.924614649349312 58.097563983627886 153.69383732198764 2 0 0
5906 60 2 0 16.872509469502543 51.950093496772006 151.34282599052418 2 0 0
5903 60 5 1 16.60591161499522 54.10153435779154 154.35476175485292 2 0 0
7841 51 2 0 10.908815122941494 55.48910835539082 158.1347604397362 0 1 0
5907 60 2 0 16.023723836337858 48.5574071188252 149.77340520683592 2 0 0
5909 60 15 0 15.08835689101124 43.48661547752197 151.69075453756057 2 0 0
6036 60 2 0 11.229872451378077 43.90374735969166 157.4985527655518 2 0 0
5517 60 14 0 23.852573090377458 48.89920176747424 156.43179703654297 2 0 0
7842 51 2 0 10.721153634157842 55.19440477871452 154.59987319407898 0 1 0
5691 60 17 0 21.551755178159215 60.53780797140241 156.02217297474382 2 0 0
8010 51 5 1 1.4458979398129133 45.1502975918916 153.67005073373602 0 1 0
5731 60 14 0 17.65229217308834 61.16425268682583 155.78608325869473 2 0 0
6273 13 5 1 1.8193308632331218 59.65467250946897 160.14089667821216 1 0 0
5299 60 2 0 39.01523737739109 47.27607445885589 159.25143611200474 2 0 0
1206 60 15 0 44.36743621750162 45.562792349690206 159.78140491494915 2 0 0
5689 60 17 0 25.502125417206486 56.42850707692339 153.77663393787205 2 0 0
5515 60 2 0 27.73020126970018 49.084635161111336 151.32949217759307 2 0 0
5516 60 2 0 25.421636566343484 51.02421942096019 153.7185530422667 2 0 0
5514 60 2 0 30.43712088640694 49.71316641688822 154.1108409234884 2 0 0
5433 60 5 1 33.28981306107444 46.96759506760343 154.31765016066973 2 0 0
5432 60 2 0 35.79255709619036 47.69880205843557 157.3497520774933 2 0 0
1205 60 17 0 45.470023864127874 45.07884677231037 156.26787006944636 2 0 0
5688 60 2 0 27.205879253730814 54.126699912695535 156.7145913966056 2 0 0
5518 60 2 0 26.37135190459163 50.67423140604948 158.1529887422298 2 0 0
5690 60 7 -1 25.53817980337622 59.9118161689228 155.40536472336248 2 0 0
1145 20 14 0 27.2890475681106 43.25678122944751 159.97343264371543 1 0 0
259 60 15 0 48.069941734202935 61.23067073502559 160.64005742136686 2 0 0
7270 20 7 -1 4.481472857976825 10.977899107245593 165.92644094347253 1 0 0
7112 21 2 0 13.431038745766775 1.5960909810097132 180.87309952316886 -1 0 0
6445 22 9 0 4.616580572559181 11.957044805031854 176.00898167464263 2 1 0
1130 10 15 0 18.07741980890364 9.373377631659993 171.26975604210443 0 -1 0
1131 10 2 0 19.302245224545356 6.863750168592201 174.01355725839332 0 -1 0
7271 20 14 0 3.8316946178375506 7.266294705657653 165.60369534094255 1 0 0
858 10 2 0 18.439156108195778 10.479412138432698 177.72412996122267 0 -1 0
859 10 15 0 19.58017000173423 13.562101856640538 175.57309072447478 0 -1 0
875 10 17 0 14.775296368518967 10.67278346050162 171.987837035161 0 -1 0
860 10 2 0 16.145957172217372 14.17535587794972 173.41633613861458 0 -1 0
852 10 15 0 15.406537347093058 8.291432791525462 179.08569848478663 0 -1 0
734 10 5 1 11.792382356705222 7.084416576501018 178.79972983298998 0 -1 0
5406 49 14 0 20.57884403605128 20.758766282381174 168.607140797447 1 0 0
5269 49 5 1 17.27240823555302 21.013896893737808 169.95399128412254 1 0 0
7333 20 2 0 5.05998605451815 4.145756157207677 167.20215996807812 1 0 0
343 10 2 0 10.037532838183715 9.90102831725304 180.40805283050312 0 -1 0
7269 20 17 0 1.9524053154610066 13.68586454515729 165.36646261652825 1 0 0
6741 51 9 0 16.691872483640882 16.52568306779942 180.49139749903745 0 1 0
6612 22 2 0 3.485795110185204 17.63260778000673 178.25316154815138 2 1 0
6446 22 2 0 5.2983388605058535 15.580036114335046 175.32470277285816 2 1 0
6613 22 15 0 6.376886582983791 18.989070706785014 180.43598656873047 2 1 0
7459 20 17 0 4.768334669123594 1.9114541351990386 169.99869285973014 1 0 0
1132 10 2 0 16.960327974862018 3.752890562345416 173.58726446979927 0 -1 0
7113 21 2 0 14.610550654006692 0.4087246399304135 177.8335479173095 -1 0 0
7467 20 17 0 8.071416313524807 1.6339525786603084 178.42269868916097 1 0 0
7640 20 17 0 3.736362622963834 7.767404109366011 181.7268146768619 1 0 0
6742 51 17 0 14.85591492880281 19.35002734798285 179.38450959736815 0 1 0
1241 10 5 1 14.330353126653364 2.9063351112395845 168.14138715192485 0 -1 0
5253 49 2 0 21.709825440203847 21.056983438124945 179.7864128289319 1 0 0
5254 49 15 0 20.007773129881002 20.0219140023665 176.84558435161338 1 0 0
3772 21 2 0 8.106963310635752 3.2840071069949586 161.81264665738573 -1 0 0
7466 20 17 0 8.824081959157985 1.0952564045366198 174.6466012763914 1 0 0
3773 21 2 0 5.964282554728987 0.07194208504829834 163.05526931136706 -1 0 0
6444 22 2 0 1.9746287829213727 12.860554262229353 178.16614766486256 2 1 0
1240 10 2 0 13.610287832106886 3.170011343377979 171.6834090526728 0 -1 0
7465 20 9 0 7.931768371663857 0.10045147087348028 170.91606526377643 1 0 0
3792 44 2 0 26.02881833740496 1.78083511085091 177.9788860691715 0 1 0
6851 50 17 0 32.66760789706426 8.811114088355609 163.53525392820453 0 3 0
831 51 14 0 44.095382340857284 8.809372865974764 165.38727713615086 -1 1 0
6680 50 2 0 35.29226635768271 11.54680471049567 164.19797851211527 0 3 0
6075 51 14 0 27.18121637581825 9.868955218562242 181.1264669481008 0 1 0
2416 50 7 -1 33.16556641697544 19.975479468631043 165.46439627537106 0 3 0
2417 50 2 0 32.210062310217005 17.579529963143187 168.46632633642733 0 3 0
2595 50 9 0 31.132672789628966 13.80252880087729 168.59088970079958 0 3 0
2596 50 17 0 34.61113750075687 13.986093480301328 169.96840400168156 0 3 0
6191 51 15 0 27.533492331331544 16.893972398820097 179.83621621521408 0 1 0
6192 51 5 1 27.825100566146183 20.72947748925159 179.19163536615466 0 1 0
6678 50 2 0 37.36114338205731 14.694898553899606 167.0349233342105 0 3 0
6679 50 14 0 36.83063946003835 14.912390607047653 163.4569862238366 0 3 0
6194 51 2 0 31.582755284812887 21.043290175824307 180.70316772513414 0 1 0
6857 50 7 -1 32.016074003719844 6.034221396623308 165.80142378455224 0 3 0
3791 44 15 0 26.748851574527325 3.57031966547343 181.3743649869954 0 1 0
3422 29 1 0 35.09246135376431 2.309078570779912 162.0227832534808 0 0 0
827 51 5 1 43.800557157663306 11.296141243627561 162.37791471609233 -1 1 0
6858 50 2 0 29.621883798978192 3.009930002412237 165.42352778713507 0 3 0
2453 22 2 0 0.9686171336896792 26.985913565397798 179.69763070258634 2 1 0
150 13 2 0 3.4542538806475918 35.3195325862133 163.263895300534 1 0 0
497 13 15 0 6.819280746720911 34.760322829192965 165.1205511540275 1 0 0
2274 22 2 0 7.770149776398881 22.28366573738207 179.0752675776248 2 1 0
500 13 15 0 9.23137216653581 27.06184894285318 163.739143200204 1 0 0
501 13 15 0 12.869646586371848 27.128572562431017 162.21294785342033 1 0 0
504 13 15 0 14.868069262912554 25.864663990130527 164.90115362712876 1 0 0
499 13 15 0 10.030955825301037 30.544944967139006 165.347336304414 1 0 0
871 13 15 0 18.622018946022553 25.169261937897684 164.58457509823282 1 0 0
498 13 15 0 10.766278801604592 34.35867349981093 164.93262972659622 1 0 0
2275 22 7 -1 6.030724464679837 25.10320876916567 178.11930636994168 2 1 0
872 13 2 0 20.85037685345996 26.74729101268778 161.81406257820242 1 0 0
2469 22 17 0 0.7355268584185256 25.299733206914027 176.16625835885984 2 1 0
5413 57 14 0 12.685214927264417 36.3780487653356 174.13128698996152 0 0 0
5412 57 5 1 9.93134689946142 37.95426282538622 175.70419050409137 0 0 0
5276 57 5 1 8.045033927026887 40.36362044012808 178.29395915009934 0 0 0
6896 51 7 -1 13.424334958527242 31.808624899830992 178.72798855035865 0 1 0
2450 22 17 0 6.093956237113649 32.1194414311376 181.1200843126492 2 1 0
6898 51 15 0 20.31204165872191 30.871322305274187 177.7749954624488 0 1 0
7083 51 2 0 21.884635949003943 27.94080535821705 169.7819231068935 0 1 0
2276 22 2 0 7.763709797664133 28.034984428235227 176.6101113667821 2 1 0
6128 60 2 0 8.580852322528425 40.78468363302638 164.82836482680975 2 0 0
2628 22 7 -1 1.7713932697480073 24.205013785626416 172.60848868178456 2 1 0
2449 22 9 0 6.1303976633990995 31.409201526999365 177.35834814008837 2 1 0
5256 49 5 1 15.409676450321541 22.53015914834435 172.97284005835567 1 0 0
5255 49 2 0 17.72834757472132 22.754305967424784 175.6444845107971 1 0 0
6900 51 15 0 20.713904452829738 26.757009775044114 173.0965702273426 0 1 0
6899 51 17 0 22.4034353951528 27.652581048882183 176.5398473706145 0 1 0
899 20 2 0 18.567548295183776 38.06319392296957 169.84823672016262 1 0 0
898 20 15 0 21.07513424207464 40.82829447562281 170.9248409035451 1 0 0
901 20 2 0 19.94512797341942 40.649937331246896 165.19790781710287 1 0 0
900 20 15 0 19.823164694657272 36.96997107142978 166.34537423140506 1 0 0
6743 51 2 0 12.360003582393077 22.196553164004065 179.22306541798216 0 1 0
6897 51 2 0 16.718886219724403 31.97477757791701 176.92034446120667 0 1 0
6745 51 2 0 14.954045748283393 27.43191150769709 181.06849530717884 0 1 0
5252 49 15 0 19.037259982033625 23.346822817545117 180.99648210057646 1 0 0
2415 50 2 0 32.43333062707982 21.93476497803358 162.35995135482293 0 3 0
7253 51 15 0 34.554879443017086 30.38670853120813 167.0778663151537 0 1 0
7084 51 2 0 25.51102870013059 29.04447954695932 170.15062372090088 0 1 0
7254 51 17 0 33.97372199913425 33.65631273358678 168.8857170843837 0 1 0
7087 51 15 0 33.71417318360419 27.275154607134464 168.89146705658302 0 1 0
7086 51 2 0 30.618146143429062 29.317613255982156 169.41152790391573 0 1 0
7255 51 7 -1 32.085572864590596 35.02705742160915 165.59556959480025 0 1 0
478 12 15 0 43.83829801703038 40.41067288270423 177.68500684411094 1 0 0
493 12 15 0 45.82602846381066 40.19587315401706 181.28201695237482 1 0 0
7085 51 2 0 28.29421327093441 31.982311029401988 170.76164199550283 0 1 0
18 12 9 0 38.23284937272565 41.9883063424997 172.62938933563578 1 0 0
32 12 12 0 46.670312897410724 38.53886780093079 172.9185304519932 1 0 0
7281 51 14 0 28.88079569286108 36.47625691809587 164.36886441124125 0 1 0
7336 51 2 0 30.641646086922638 39.6367335940839 163.65750944127728 0 1 0
7340 51 17 0 34.23641062461336 39.82399093258779 162.48146230372924 0 1 0
2090 2 15 0 30.885903720809313 36.90445211797322 180.3356127406485 0 0 0
2094 2 5 1 30.45288959282492 35.92658022362913 176.88033351032206 0 0 0
17 12 2 0 39.79058970390055 38.65876984730718 172.80522603326457 1 0 0
16 12 2 0 43.219445005652354 39.08511823364196 171.23379665778938 1 0 0
525 20 15 0 27.980919933878855 42.402503045775916 177.65035678738892 1 0 0
2254 2 2 0 30.883117081690784 42.0147400175385 172.30198736624163 0 0 0
2091 2 2 0 30.20889701875123 38.57987580804437 174.30761284043214 0 0 0
868 12 15 0 45.7776568914808 25.177617351428342 180.54457457714275 1 0 0
867 12 2 0 44.44708341820028 28.96136518028925 180.65057968961756 1 0 0
523 20 15 0 25.73636546801532 39.21826985043679 181.94305813000264 1 0 0
495 12 15 0 44.44997718557129 34.13975625285714 181.70631182823928 1 0 0
496 12 15 0 42.147521128863694 33.047830875261305 178.75916690741218 1 0 0
503 12 15 0 39.54184943929567 30.436931814944312 179.34188714818816 1 0 0