LAMMPS data file via write_data, version 10 Mar 2021, timestep = 8504000

8505 atoms
40 atom types
8442 bonds
1 bond types

0 100 xlo xhi
0 100 ylo yhi
0 1000 zlo zhi

Masses

1 131.2
2 57.05
3 128.2
4 101.1
5 156.2
6 71.08
7 115.1
8 129.1
9 163.2
10 99.06999999999999
11 113.2
12 128.1
13 186.2
14 147.2
15 87.08
16 137.1
17 114.1
18 97.12
19 103.1
20 113.2
21 131.2
22 57.05
23 128.2
24 101.1
25 156.2
26 71.08
27 115.1
28 129.1
29 163.2
30 99.06999999999999
31 113.2
32 128.1
33 186.2
34 147.2
35 87.08
36 137.1
37 114.1
38 97.12
39 103.1
40 113.2

Atoms # full

7955 59 2 0 39.35845646536749 0.8868292445970238 102.68216281303202 1 2 0
7956 59 2 0 41.43989562088981 1.6381760929789742 105.70649684072549 1 2 0
1223 49 2 0 10.132141996737664 6.857197595087808 125.33855398546287 -1 2 0
1115 49 2 0 15.191934709868393 9.386959662178077 121.57975915742033 -1 2 0
1221 49 5 1 12.592177421285545 6.763382796461741 122.37409070966224 -1 2 0
826 49 17 0 19.475701606224483 14.455755298267562 124.14798028608519 -1 2 0
1113 49 2 0 20.85251910636234 11.581359639650696 118.26639537839914 -1 2 0
1114 49 2 0 16.939603794241254 11.909661497586711 118.96360758038963 -1 2 0
350 3 15 0 32.633142433474625 6.080062181728821 127.95810528551327 0 0 0
332 3 15 0 25.904534354427014 4.710260482554467 126.81038591177966 0 0 0
333 3 15 0 22.630941684073953 3.4752869484041264 125.02741083081723 0 0 0
814 49 2 0 21.623028312221457 16.87314501767326 126.42945195201702 -1 2 0
1112 49 14 0 21.624148133626008 14.326261234741578 120.8217950379833 -1 2 0
356 3 15 0 23.75999811480848 0.14499572661971172 124.28330997799368 0 0 0
496 12 15 0 54.67433094639593 1.2836010970778253 122.26062235080504 0 1 0
4093 3 18 0 51.950443677887975 6.044197500161358 127.4383237961661 0 0 0
4755 62 15 0 60.50850669245336 5.036087633874312 119.52761431168287 0 3 0
4620 62 6 0 58.89107645242962 2.3301304332343653 114.66556931966274 0 3 0
4629 62 15 0 57.47979747718976 2.633702561479473 118.19312133210622 0 3 0
4756 62 15 0 63.1316390507341 7.582842784644432 118.59395376637595 0 3 0
3727 3 2 0 62.41858396772933 0.5335806909657285 121.87255927605777 0 0 0
5077 46 15 0 42.20052476760997 38.33316405241101 122.89225450999889 0 2 0
4516 49 6 0 38.42651233664106 29.947984325873286 127.0841045717964 -1 2 0
4518 49 1 0 39.31301092615861 27.66010401174841 124.13690250138453 -1 2 0
5079 46 15 0 37.363705695561734 41.47773463620293 124.70115380853194 0 2 0
4727 46 15 0 33.982534769079294 46.73849227648341 118.12664491550998 0 2 0
4728 46 12 0 37.607985098828784 45.2938178075765 117.7682573212544 0 2 0
4729 46 3 1 40.62954075599976 44.06219324574092 115.93253159374984 0 2 0
4730 46 2 0 42.53169616523398 41.29013459154364 117.90278597132723 0 2 0
5078 46 2 0 39.01870808363685 39.39538782236582 121.77991216482214 0 2 0
5620 46 14 0 30.04101622189889 41.02503458637786 127.229281034021 0 2 0
4403 46 6 0 29.03493303165385 53.270958173817085 124.75455619298111 0 2 0
4721 46 15 0 30.537454184018962 52.02929371857039 121.57041213653675 0 2 0
4726 46 15 0 31.31158916072927 49.62068888595038 118.84172235929661 0 2 0
5076 46 3 1 44.39681702840083 40.66294862115601 120.96578294013528 0 2 0
4957 53 15 0 10.234598031577931 13.744047771881284 143.35164664633527 2 1 0
5073 53 2 0 9.512221846698115 17.28981696980859 142.51789273516553 2 1 0
5074 53 15 0 7.8013282248777465 19.254569610449206 140.00102742068745 2 1 0
4614 53 2 0 13.997244574076475 7.20576806417264 144.0235713733944 2 1 0
4613 53 3 1 15.653325125276888 7.387467342783811 147.58869792378601 2 1 0
4611 53 15 0 21.333234586932136 4.166729485960824 147.2054606229046 2 1 0
4612 53 12 0 17.679977332559158 4.237036677524301 147.68156234778584 2 1 0
4947 53 3 1 12.40506268276971 10.571541665619543 143.55555075567443 2 1 0
1357 49 14 0 8.46949012258557 6.8510021273572645 135.1320449737711 -1 2 0
1309 49 2 0 9.157320697129228 5.439242112064572 128.66812587424423 -1 2 0
1356 49 2 0 7.203749177123965 6.983413547366727 131.70176510459063 -1 2 0
5888 53 2 0 21.058840942842437 17.471845385406347 144.7242032472946 2 1 0
1513 49 17 0 7.4703383981545 7.22035960290181 142.7842365511463 -1 2 0
1514 49 7 -1 4.901410948660749 9.560778626063378 140.92130002934178 -1 2 0
1359 49 2 0 9.284044309608927 4.498863840861577 141.1316379596143 -1 2 0
1521 49 17 0 1.4254454107070047 9.601767881467204 142.59258513546678 -1 2 0
1358 49 2 0 10.537390741075024 6.564449336418792 138.50799607969762 -1 2 0
5734 53 14 0 17.398119025712973 17.587700056656896 144.05885380891831 2 1 0
5733 53 17 0 15.703208915101497 18.63707313605481 140.69694782841253 2 1 0
5440 53 5 1 7.3294838886585065 18.366362010738815 148.13956094506585 2 1 0
1528 49 2 0 4.338518577042664 7.781263552132335 148.80910050136825 -1 2 0
1522 49 14 0 1.5581895512102477 9.682459796862416 146.55778074341077 -1 2 0
980 59 15 0 4.6233449524588135 1.0346352798605414 131.04242327742952 1 2 0
611 59 2 0 11.203156290919157 0.05719545656742753 129.60272474340823 1 2 0
979 59 3 1 8.211619296386319 0.15362263389501152 132.43071938926764 1 2 0
351 3 15 0 28.91549828145276 5.324768464595521 128.72620036921435 0 0 0
3 3 2 0 40.95595318017278 0.57723205019047 138.94175640784962 0 0 0
813 49 15 0 24.37078738864772 18.541318526834576 128.3943406869963 -1 2 0
23 3 2 0 38.68032233783571 2.0641840302747925 130.03323150948063 0 0 0
22 3 2 0 40.357940119597586 1.7000282032066203 133.46150878937843 0 0 0
31 3 15 0 35.24301877423311 3.884743764715158 129.80980445817076 0 0 0
743 17 2 0 28.941059495173576 4.323451282682512 140.81068439482567 -1 1 0
769 17 17 0 26.67181156914797 1.6138575528460946 142.62692961388572 -1 1 0
740 17 15 0 33.18274376783403 8.661303130509726 139.51322278480748 -1 1 0
742 17 15 0 30.97174837950267 3.9119753615475448 138.14362904267938 -1 1 0
368 17 2 0 39.26868453214633 6.597462190274581 139.61372032570068 -1 1 0
741 17 2 0 32.09732187984362 6.81777732743658 136.29252647161692 -1 1 0
367 17 3 1 40.92440482200926 8.73257744502753 142.19788400211158 -1 1 0
739 17 3 1 35.92789176550715 6.375613920255884 140.73539369226103 -1 1 0
4603 53 15 0 26.810661747720133 5.430305799679482 147.1978270157554 2 1 0
2882 17 2 0 31.695011950546615 2.568563237898168 149.22838612241017 -1 1 0
4082 3 12 0 46.33780410522226 1.9545411555158645 135.14649529706801 0 0 0
4095 3 17 0 47.79702515370537 2.901707796366167 131.60003368426922 0 0 0
366 17 12 0 43.94486728404012 9.29001202658132 139.83041882303192 -1 1 0
362 17 15 0 51.93726694509069 14.032028620052403 137.50815562562966 -1 1 0
4466 17 6 0 58.012237052551875 13.035730261963693 144.02686452502965 -1 1 0
4467 17 15 0 54.3738892593143 13.576101912919608 144.14556340786504 -1 1 0
32 17 6 0 54.75874517866166 13.711065261427738 140.43982959935613 -1 1 0
4470 17 1 0 60.52198222581507 14.675301555930801 141.6765149090509 -1 1 0
4094 3 5 1 48.75820753001991 5.7793735239296185 129.31145160269622 0 0 0
51 27 2 0 52.60247345166954 3.6463770626165974 147.37797790030783 0 2 0
364 17 15 0 50.66775367426151 10.247196275974161 137.4110121721636 -1 1 0
365 17 15 0 47.198335580304125 9.582058688046432 138.1316006756546 -1 1 0
1842 2 5 1 59.691026714185675 6.303533124728959 144.99186991802975 0 2 0
3915 3 14 0 60.84903497652978 8.576773821639604 132.70501130091202 0 0 0
3914 3 9 0 62.60175215938003 7.731183161337099 135.68274887046582 0 0 0
1834 2 2 0 59.464140938788894 6.12189093748246 148.77020891452062 0 2 0
1843 2 2 0 60.723974991708154 6.308864904905744 141.28451215215188 0 2 0
52 27 9 0 50.75226942641837 6.621946149832344 146.40893734293448 0 2 0
4092 3 3 1 55.15813189648557 7.411700694675181 129.21880922095855 0 0 0
3916 3 6 0 58.89796813730267 6.898904552154992 129.8381402346008 0 0 0
1844 2 2 0 61.48770716420971 2.836764906452078 140.54183504480443 0 2 0
53 27 2 0 48.54775721569511 9.679097813012651 145.97848531938195 0 2 0
361 27 2 0 49.061322260726705 12.141605207216424 148.56088944374878 0 2 0
2651 62 17 0 61.00445120150928 1.0219973764142019 149.31140083505932 0 3 0
5569 53 2 0 16.18091433192018 23.26872961350148 148.40362764843692 2 1 0
5570 53 14 0 14.533861444522556 26.54469906418537 148.15759291591118 2 1 0
5568 53 2 0 13.572299860389839 20.299710151366522 148.16502560600114 2 1 0
5331 53 17 0 8.747222757533851 25.736363431056397 144.38762838825883 2 1 0
5089 53 2 0 8.589711827699121 21.969056025827598 142.49793130706396 2 1 0
5337 53 14 0 6.878804136143454 27.955099561362577 147.16429581875914 2 1 0
913 28 5 1 11.450879882882516 33.77039672626161 143.27782350801476 1 2 0
5731 53 17 0 16.93998372028212 25.41365985756682 138.47777137083375 2 1 0
5732 53 7 -1 16.269200197440647 21.928705237643733 138.7813511842865 2 1 0
1157 28 14 0 9.368916431737063 27.995399358255767 138.89751775805777 1 2 0
1156 28 3 1 9.629809025903262 30.887410166614963 141.6642719710487 1 2 0
912 28 2 0 13.463921758927455 35.16181806291106 146.14421761357974 1 2 0
5718 53 2 0 14.697740061302387 26.284216445507766 141.764576289879 2 1 0
5571 53 2 0 13.365514399125589 28.357705589417705 144.82526620247137 2 1 0
911 28 15 0 14.360033716806173 33.42914612768941 149.24447904158927 1 2 0
6182 3 2 0 20.360059139578862 30.528001163584403 140.4841764270236 1 -1 0
6184 3 3 1 16.602488302010087 34.66830142225913 138.53467445563294 1 -1 0
6183 3 15 0 17.69192097651439 30.768780766077306 137.89321938577976 1 -1 0
6181 3 2 0 20.221277182792097 33.88915704744351 141.82882527222665 1 -1 0
6213 3 2 0 13.537971926391057 36.280982997345454 137.18691735706847 1 -1 0
5439 53 2 0 5.937704767419898 22.00756862404321 148.50629171172355 2 1 0
5567 53 2 0 10.37076556668113 20.024164646617063 146.4726842317182 2 1 0
5338 53 2 0 3.601184693356148 25.923277749472497 148.1633296912556 2 1 0
5339 53 2 0 2.146183386691895 22.345630171316007 148.0765269022364 2 1 0
2193 49 2 0 2.420224982006821 21.450423531679178 141.43003169402365 -1 2 0
812 49 2 0 24.25124142032725 21.566622354465 131.14635282122833 -1 2 0
811 49 15 0 24.523248004317622 21.490775689831814 135.05192830976506 -1 2 0
810 49 3 1 24.81844168908973 25.195613320865156 135.38432293135332 -1 2 0
5333 46 17 0 41.22179811862135 39.05572740595424 130.48497255877825 0 2 0
439 49 2 0 25.347257109418365 28.66561814428798 134.62991343371795 -1 2 0
5902 53 3 1 22.894897374565026 20.41299373862635 143.24877014815667 2 1 0
435 49 15 0 36.091407168098456 34.40006526045396 133.95691350915672 -1 2 0
437 49 12 0 30.358079780457256 34.59477604579288 133.68482978759775 -1 2 0
436 49 15 0 33.616147174895104 34.82504857039327 131.29344740522268 -1 2 0
438 49 3 1 28.049808372187705 31.595269589344635 134.5239508079919 -1 2 0
420 49 15 0 39.13532780863734 32.31896939532443 133.4169054144883 -1 2 0
93 49 6 0 41.35807209122937 29.280669246541365 133.14117276508324 -1 2 0
111 49 15 0 41.43266359259193 29.476740125432862 129.20067105704834 -1 2 0
5903 53 2 0 24.869726927907948 21.05595039454931 146.5043377054729 2 1 0
5905 53 17 0 27.04757761874417 26.10775460570889 144.76334049450372 2 1 0
5904 53 2 0 23.79007319860494 24.595562749778587 146.48682553787796 2 1 0
5906 53 14 0 30.81387684092373 25.354157277127914 144.3891557440187 2 1 0
6025 53 15 0 34.28384204978366 24.71223863590063 145.91368195252085 2 1 0
6180 3 14 0 22.60426368768363 37.079298650553795 141.6935404994344 1 -1 0
6116 53 2 0 35.541118553829826 26.923648035893546 148.87230071465095 2 1 0
6342 46 2 0 18.693940957567726 58.02184405685081 148.60436455968667 0 2 0
6366 3 2 0 13.289489497555554 39.203743345003645 139.85572689864244 1 -1 0
6054 3 5 1 16.707129706704375 39.803510001737244 147.93799536215477 1 -1 0
440 50 15 0 0.8506221811815883 53.684240063187765 138.43797144448266 0 1 0
6055 3 2 0 19.04494360673869 41.102715004187935 144.87018595578513 1 -1 0
96 50 15 0 0.7942541858251139 47.82456911257974 132.7280889866681 0 1 0
5992 3 2 0 13.487790688944504 41.65796406283184 148.52016384362216 1 -1 0
6520 3 15 0 2.6928470784486693 46.22667676993589 148.8734787938358 1 -1 0
6367 3 2 0 10.664619005574426 41.845872818835055 139.68840834084065 1 -1 0
442 50 12 0 3.688734655379395 58.20190627300115 140.4794761126417 0 1 0
6378 3 2 0 8.04099754130699 43.42125152900374 147.53101056155984 1 -1 0
6580 3 2 0 3.116555106028731 49.34209215330772 147.46835975478032 1 -1 0
6374 3 2 0 11.15379925095238 44.82556309754291 142.43059987178026 1 -1 0
441 50 15 0 2.7663254888376776 54.503099918648815 141.4695624665057 0 1 0
6375 3 9 0 10.520808531180545 46.143445548053144 146.01504164175645 1 -1 0
6519 3 2 0 4.592777019431654 44.388275767887 146.1293940277113 1 -1 0
5080 46 2 0 38.43480498334894 40.8168976802732 128.3521091622876 0 2 0
5618 46 2 0 31.32060091377952 44.019630877573704 131.9627367216677 0 2 0
5619 46 2 0 32.85852883663615 41.27322880475239 129.5434143247856 0 2 0
5617 46 2 0 32.294770097067314 40.8730879390028 133.95231238644698 0 2 0
5624 46 2 0 26.240730014835737 42.020164441565726 128.57476083543014 0 2 0
5461 46 2 0 37.09434149993272 44.977443475227275 135.4294429594889 0 2 0
5462 46 5 1 34.898266829372076 41.699748234390306 136.1382239190433 0 2 0
5784 46 2 0 23.714030864720392 44.609166426744174 129.9321510953865 0 2 0
4317 46 15 0 27.109596855179134 53.53145257467563 128.26308668029807 0 2 0
4314 46 6 0 28.292318471308857 56.78716540685365 128.91899879797523 0 2 0
6057 3 2 0 21.95805720207175 40.92573857523304 142.44480358148516 1 -1 0
5335 46 2 0 40.76910918133481 40.93836270636868 136.89215050880796 0 2 0
5336 46 2 0 40.39721133045961 44.90426573679468 136.8779533561555 0 2 0
5802 46 2 0 27.302811396984325 53.13325967318377 141.3920830052866 0 2 0
5959 46 3 1 30.818036491062863 52.21437052582203 139.8339172957741 0 2 0
5785 46 17 0 21.92746506380083 44.02922747164249 133.28525181135754 0 2 0
5786 46 7 -1 23.802092161135082 45.721090378677744 136.34859946804127 0 2 0
5960 46 2 0 34.28569300306944 53.053281547849714 138.8062935132036 0 2 0
5961 46 2 0 33.16670655672699 56.93147729515992 138.067615850503 0 2 0
5787 46 17 0 25.282305642737388 49.279866753579554 137.47129803431207 0 2 0
5788 46 14 0 24.646177835663508 52.98378341404988 138.2409146913971 0 2 0
2295 46 15 0 30.904166790233816 51.967103197142364 145.84185545737816 0 2 0
2277 46 2 0 31.733146472897275 48.62640375470869 147.37422028477462 0 2 0
2294 46 2 0 27.421091294997822 53.20032699709673 146.56967193162848 0 2 0
2278 46 7 -1 34.93738833625772 48.57091943314724 149.203604220511 0 2 0
4313 46 1 0 25.30997168247155 58.47932417581206 130.5173710145451 0 2 0
5334 46 14 0 42.98688436672701 39.95277144610036 134.09100255185598 0 2 0
3109 46 12 0 45.66541707948017 42.92447338369105 148.501652792691 0 2 0
212 44 1 0 62.52109336750521 56.501918960545915 148.93580340812065 1 2 0
3110 46 15 0 47.50127417196329 45.94328410433932 146.8764551453437 0 2 0
3263 46 15 0 49.61641907856125 48.938725724563525 148.1578618222001 0 2 0
3265 46 14 0 48.95168936681606 54.614579611098776 149.19879270657253 0 2 0
3266 46 2 0 51.81673626876416 57.21709074803644 148.33748558202979 0 2 0
6656 61 7 -1 11.313539964152609 3.241145682734649 149.92824264046783 0 2 0
6655 61 2 0 11.434753590513514 6.772160883253226 151.5607735933716 0 2 0
1697 49 2 0 2.4630351425565857 1.2379195923107875 155.9322984596786 -1 2 0
6654 61 15 0 13.410879349935898 8.975712879830132 153.69726299955718 0 2 0
6596 61 2 0 13.01204196242809 4.814532739507495 157.52207786033637 0 2 0
6597 61 2 0 15.607281020610838 6.165318943400018 155.0185366824482 0 2 0
2745 49 7 -1 3.1288350271245773 13.910821123187509 164.60365425425186 -1 2 0
6288 61 15 0 9.316133118274973 15.064297001394563 166.88574235011757 0 2 0
6436 61 3 1 8.472490308122444 16.089076073002904 163.1386489926831 0 2 0
6449 61 2 0 9.032574099588064 9.867805786481254 156.57186480763096 0 2 0
6450 61 9 0 9.629758820025478 6.349001787591376 157.83658663851372 0 2 0
7396 17 17 0 15.998822898839368 10.88364318236108 162.95276334596275 -1 1 0
7397 17 12 0 16.839424652775868 7.217720080842451 163.95805957051456 -1 1 0
7395 17 17 0 15.360118100762383 12.853474528222911 159.602042255359 -1 1 0
7293 51 2 0 16.20929347456063 18.015512550165436 164.60688819804676 1 2 0
7398 17 15 0 15.104874530482679 6.547723359154035 167.4629048368017 -1 1 0
7369 51 17 0 16.243622981089466 18.33847582772896 168.35369547114132 1 2 0
3680 62 15 0 8.509338467816937 3.1779519834622 163.27933955565996 1 3 0
6437 61 2 0 9.554430565496366 14.985467930872979 159.76620488217165 0 2 0
6447 61 2 0 9.186107211333582 17.001195761716268 156.87282959947342 0 2 0
6448 61 2 0 8.666011001316166 13.450676593857654 155.50438649294043 0 2 0
7394 17 9 0 18.89344365044873 13.065304939694135 158.12878327743505 -1 1 0
2396 49 2 0 1.6332402960357053 18.7060254641762 152.79497488807974 -1 2 0
3851 62 2 0 8.139792093102022 1.1011987838832724 160.32773390450623 1 3 0
6287 61 2 0 10.577275751623398 18.271752991439968 168.15166300618057 0 2 0
6423 51 9 0 14.508509895719728 18.863917502210786 154.40252090546133 1 2 0
2746 49 2 0 2.8622341403683755 16.613586757636014 167.2862609300081 -1 2 0
1696 49 2 0 3.8558446166691143 1.879067314195878 152.3049200664758 -1 2 0
7533 51 9 0 16.041684305779977 14.902488278401933 170.1962946482729 1 2 0
7577 17 15 0 14.665644035063545 8.960600130623465 170.24774352135384 -1 1 0
2395 49 7 -1 1.2567969428873202 17.012605509736794 149.667846742657 -1 2 0
7197 17 7 -1 20.58833985591829 1.2590725053011445 160.49359911528495 -1 1 0
1529 49 3 1 3.271056686023216 5.615261829520353 151.6560842612666 -1 2 0
3679 62 15 0 4.964911496029094 2.7249852623341506 163.90306749486612 1 3 0
6809 61 2 0 14.262748256459636 1.1490981883178009 150.48449869677165 0 2 0
2747 49 15 0 0.5190417479330878 18.282863823919786 169.68505988624008 -1 2 0
3678 62 3 1 2.2769088474158568 0.5961114175379247 162.7993418024297 1 3 0
3677 62 2 0 0.7540455253799081 0.8031970789900432 166.17885727213726 1 3 0
4307 53 6 0 27.916755082777133 8.09145393207512 150.15656291422346 2 1 0
4610 53 15 0 23.895068185480955 4.758862320430844 149.67117244827324 2 1 0
7324 17 2 0 22.005196197399226 8.417098116357142 160.27167293328685 -1 1 0
7326 17 17 0 22.283297005205796 12.08972295862528 159.4699227170057 -1 1 0
4306 53 15 0 30.316291353558906 10.150068180479975 151.89432290556445 2 1 0
306 53 6 0 33.3987615687074 8.80854371468807 153.42340790320506 2 1 0
305 53 1 0 35.43821788848825 5.852830193835745 154.72378256637884 2 1 0
5740 61 17 0 33.67531973718767 6.66462034340864 164.03709017542536 0 2 0
5741 61 14 0 32.042303816917524 9.836497243351815 165.7162038366125 0 2 0
5908 61 2 0 28.862238600321554 7.964528297586376 166.85053863643017 0 2 0
5915 61 2 0 23.649597697377743 11.126557429199 166.29291938775557 0 2 0
5914 61 3 1 25.8311696122193 9.268695911551315 168.832175462232 0 2 0
5916 61 2 0 23.957973317078103 14.536829292897146 164.98006995202462 0 2 0
764 27 2 0 35.675478801363084 14.743138285476885 165.18718407907676 0 2 0
765 27 5 1 37.2005339617968 18.30098751968075 164.2510995952436 0 2 0
762 27 2 0 40.23814526287351 13.265504362199447 165.50105694208702 0 2 0
761 27 9 0 41.9323419427384 10.01159977493175 164.68401382519414 0 2 0
763 27 15 0 37.63856174118594 13.559245295520528 168.0124077112581 0 2 0
738 27 15 0 40.41214762586687 8.666869562218984 161.45514038347656 0 2 0
391 27 15 0 41.65507846140796 7.901921804862444 154.20976099003747 0 2 0
392 27 15 0 41.65462798865177 7.952994984511398 158.09314331998934 0 2 0
390 27 15 0 40.355842501950605 9.040681672217403 150.98114247511876 0 2 0
7198 17 14 0 22.485342372765082 4.527407684335643 160.14123617681196 -1 1 0
5917 61 17 0 22.60665629145397 18.028157978059603 165.33451579827783 0 2 0
1096 27 3 1 38.92657309298339 17.86196655034824 160.86011258450574 0 2 0
1097 27 14 0 38.17074186617399 15.385254748812867 158.03692840963313 0 2 0
6205 51 14 0 29.95187003266985 19.55217828974306 161.5319670984113 1 2 0
5739 61 7 -1 32.672384333157915 3.0134674629862412 163.08543330178352 0 2 0
7921 17 2 0 37.87563961277822 1.0134794847724933 168.6825006131384 -1 1 0
7995 17 15 0 40.377166789219324 7.685376350462211 170.00622717123804 -1 1 0
7996 17 15 0 36.4533837748217 7.3742465292472765 170.6069055236583 -1 1 0
6026 61 14 0 24.760617634204824 19.378911581311986 168.1173631438802 0 2 0
2883 17 2 0 33.5601765178328 1.2714245442951146 152.12804563312588 -1 1 0
5738 61 17 0 29.628415960396783 0.8562937208295416 162.81096317565832 0 2 0
7083 12 2 0 55.92861349482704 2.355005708225374 153.7632116465854 0 1 0
2128 62 2 0 62.74687594223558 2.051592084234778 168.22130030726544 0 3 0
2652 62 14 0 62.45581123178525 1.4041559360838523 153.03455727512005 0 3 0
1766 2 15 0 58.590101185236215 7.4980742416861625 152.3436053831112 0 2 0
388 27 15 0 46.97535723423894 10.574447243819685 151.34993117124142 0 2 0
389 27 15 0 43.70087526079071 10.386852826283512 149.6549113567515 0 2 0
1762 2 14 0 62.35134574872495 8.934523769197037 152.74205068614438 0 2 0
7084 12 2 0 52.466805014548974 4.053408408872195 153.55465932277434 0 1 0
7086 12 2 0 51.191620713130234 1.9516026059264422 159.4478872320481 0 1 0
2129 62 9 0 59.92192097713206 3.5344727354617227 170.07480072769346 0 3 0
7085 12 2 0 49.84060374725888 3.2536811445541316 156.22686309792425 0 1 0
6808 53 2 0 47.197226789555 18.340693166052997 169.50921172086294 2 1 0
6495 62 2 0 61.85774546026856 1.6668908337058783 164.52715737924933 0 3 0
2305 62 15 0 61.863371900019104 11.163497203820118 168.0838305651255 0 3 0
2297 62 2 0 64.00389233067843 8.244622314586568 167.4422861108579 0 3 0
909 28 9 0 8.783862805801599 32.21785258604688 152.09761831394147 1 2 0
910 28 2 0 11.134257215297094 35.19652285700178 150.87103525596623 1 2 0
6413 51 2 0 20.334441799514263 23.350989853917252 150.615426458899 1 2 0
7292 51 14 0 14.103957788517967 20.276026453174715 162.0507053228728 1 2 0
7291 51 7 -1 15.364883865906616 22.635853577728074 164.8259842300845 1 2 0
7290 51 17 0 18.177493485350308 24.73490879788558 166.63106257485163 1 2 0
6414 51 2 0 17.81184747552794 23.835840849516092 152.9350537811536 1 2 0
6578 51 9 0 15.412839291561491 37.30896722561618 154.72388974783954 1 2 0
6570 51 2 0 14.092637820806278 34.55143795221503 156.84499081641303 1 2 0
6567 51 15 0 11.259920800732232 26.304318406099807 154.50731458830387 1 2 0
6569 51 7 -1 14.675879265150218 30.73067117212822 156.85701359954749 1 2 0
6568 51 2 0 14.176451843324806 28.304595629775175 153.63013078073212 1 2 0
887 28 15 0 9.06237769869054 33.954104800550695 155.64496779773202 1 2 0
3932 28 12 0 3.3720777596449394 38.271462411922734 160.8433787924604 1 2 0
6742 51 17 0 18.6583675046656 38.974030474181895 156.41555168961517 1 2 0
7139 51 9 0 19.812779574835755 28.02054524145625 167.8266963761288 1 2 0
3357 28 2 0 5.501052942621111 27.636796347109392 165.57016123069664 1 2 0
7870 28 3 1 8.810939127090338 25.830484923125145 165.9714240457931 1 2 0
7869 28 1 0 9.796699505224833 24.957751295740213 162.12887461896975 1 2 0
7691 28 18 0 8.689245616073254 22.190443198529017 159.90393906380737 1 2 0
7690 28 2 0 5.582694950241285 21.663725352335263 162.18703401701683 1 2 0
6424 51 2 0 11.291114595366555 20.814269729953924 153.5387150350683 1 2 0
533 28 15 0 9.467474609546949 37.14717858090964 162.99766206350293 1 2 0
397 28 15 0 7.565926676794602 35.68695617271799 165.761122328223 1 2 0
393 28 15 0 9.377532745242604 35.63135512878079 168.96919111749912 1 2 0
59 28 2 0 13.14797472787548 36.715043546066155 168.52052277484498 1 2 0
6963 51 2 0 16.286364045440195 30.63659116923109 162.18500288953405 1 2 0
7133 51 2 0 12.881618117369158 29.26603430520307 163.64304454586897 1 2 0
7134 51 2 0 12.673362352305482 33.032119071639585 163.58333104309398 1 2 0
534 28 15 0 10.555204612321484 38.27772793807447 159.44534671396488 1 2 0
6286 61 2 0 10.460869697696106 22.15221621981409 169.08866964754392 0 2 0
6417 51 2 0 15.568213602571337 22.181408661661354 155.5021791242342 1 2 0
6566 51 2 0 8.79504008155813 23.67540653867065 152.82769222429894 1 2 0
7135 51 2 0 12.90293090565305 31.657379910846203 167.39162831902243 1 2 0
7136 51 15 0 16.644739025812694 30.610373340672655 167.82658124769168 1 2 0
6950 51 14 0 19.164537706071947 33.23880105365596 162.5968136963573 1 2 0
535 28 15 0 8.286321059958915 37.63055595547201 156.4553295539342 1 2 0
3358 28 2 0 4.996522585159749 30.843462661968914 167.63258681982666 1 2 0
6902 51 15 0 20.421101034335475 39.17706981094785 164.27056154042012 1 2 0
2407 49 9 0 3.637171308539921 20.73839749191527 155.1548460212582 -1 2 0
7689 28 14 0 2.2342302889747976 22.793523217775327 162.4696432119479 1 2 0
7688 28 17 0 0.1699830854869165 24.49247660896118 164.8077834464767 1 2 0
7672 28 15 0 2.2694959927398433 26.098179837916305 170.6241647019299 1 2 0
3931 28 2 0 2.190013934146158 35.46609965534981 158.39248289994234 1 2 0
2573 49 17 0 0.9465670108051791 23.415169299410692 155.76308039565947 -1 2 0
6117 53 5 1 33.0535290247172 28.645617864317266 151.2156551506392 2 1 0
6254 51 2 0 22.72564670185828 23.48768107826609 153.62654489775923 1 2 0
6208 51 15 0 24.05197374123243 24.625229318640777 158.8148986475238 1 2 0
6209 51 3 1 22.65135715835183 21.53402734234538 157.1742705513261 1 2 0
6949 51 17 0 21.80394803433391 35.437897202502484 164.01523130844402 1 2 0
6072 51 5 1 29.86012756349532 26.80875298253479 169.6875765127682 1 2 0
6207 51 2 0 24.266452966714958 23.61819926567161 162.62194037948942 1 2 0
6118 53 2 0 30.778414357674542 29.14640180258916 154.31753447543846 2 1 0
6206 51 2 0 26.207048208443968 20.76199155505691 162.5246754555099 1 2 0
6253 53 14 0 25.824840618961378 33.653507461838046 157.3641168752696 2 1 0
6273 53 3 1 34.760796597536334 31.194026619484962 164.0929359478829 2 1 0
6269 53 15 0 31.792169147493116 29.13884304504605 162.532906393807 2 1 0
6268 53 2 0 28.262878258144966 29.766162967192965 161.08758411465868 2 1 0
6266 53 2 0 24.988237250474658 31.999435753131856 160.66624571670832 2 1 0
2917 46 17 0 34.02718953170771 36.62752251477199 161.63666925952822 0 2 0
2919 46 14 0 35.39214243772305 34.46603134111761 155.65592028223702 0 2 0
2918 46 7 -1 33.278905030010996 33.95766291032528 159.04879178870686 0 2 0
6074 51 2 0 30.965585200106734 21.329680513208796 164.6650232201683 1 2 0
6073 51 2 0 30.34834100329995 23.613599326336715 167.62118737105195 1 2 0
2997 46 2 0 36.61286764546891 38.03543345483272 156.25778319736307 0 2 0
6648 53 15 0 42.26391810558669 23.119857223815966 166.26451293384625 2 1 0
6649 53 2 0 39.29542979896389 22.256557419145746 168.67241756031532 2 1 0
6119 53 2 0 28.220042812288337 31.137339608514157 156.15348242772342 2 1 0
2916 46 9 0 33.098594261026264 37.62355374744611 165.2423838257054 0 2 0
2797 46 15 0 31.522053964745492 38.28116729909328 168.66572012126102 0 2 0
6028 61 15 0 22.904138563136932 22.912374227286882 168.18283979102677 0 2 0
6409 53 2 0 37.882167235451284 33.09818320410408 163.9730395853337 2 1 0
6431 53 2 0 40.418355539704166 35.91280032563752 164.51226874694535 2 1 0
6434 53 9 0 48.73486141172793 30.485436618599593 166.7961815615558 2 1 0
6555 53 2 0 47.495752498700256 27.451171153296816 168.87035724329976 2 1 0
6433 53 2 0 45.928630164316736 32.489790502359995 168.31451059465925 2 1 0
6576 53 2 0 45.6127511423557 24.21420074856773 167.68239538823644 2 1 0
6432 53 2 0 43.27041567885068 35.081415396913826 166.8045513859816 2 1 0
3958 44 14 0 54.881810521999796 33.819388059500135 168.5156693557852 1 2 0
4125 44 6 0 51.885154598581266 35.90604941454509 170.15374053945035 1 2 0
6952 53 17 0 49.123875784082834 19.94421514006222 166.69995603206686 2 1 0
6959 53 7 -1 52.14194585002907 20.73266725100281 168.48354502614643 2 1 0
6581 3 2 0 2.4094536535451763 51.64746092946675 151.24416511570433 1 -1 0
1540 3 7 -1 9.64307441928915 56.777017226226334 163.44529086288912 1 -1 0
5991 3 15 0 11.654711311129589 41.184354370559866 151.4839860250285 1 -1 0
6492 46 2 0 17.43249106058889 58.33024825220232 152.23662915345548 0 2 0
6493 46 2 0 19.455726095645936 54.96578359467275 151.94883688330214 0 2 0
6743 51 2 0 21.178937440504114 41.18220111252576 154.59873622776325 1 2 0
5818 3 14 0 11.79902986570536 44.01995570966448 153.92727475789096 1 -1 0
5816 3 17 0 10.311556312897986 45.359026992486015 157.29816628894662 1 -1 0
1549 3 14 0 4.176954786953508 56.144610503750116 160.1680764435436 1 -1 0
3933 28 9 0 2.9725093232203355 42.07057919822784 162.05390481214476 1 2 0
4114 28 3 1 0.9139300957518477 41.01985028571964 168.86281062599954 1 2 0
1541 3 17 0 6.632303169204285 58.48047239715714 161.1515071300618 1 -1 0
1722 3 3 1 8.17743696745704 51.63628299221981 163.43831354766414 1 -1 0
1717 3 2 0 6.324778106550755 52.994365594033006 160.46003699811828 1 -1 0
1723 3 2 0 9.471891849425573 49.878947441421964 160.09051785665795 1 -1 0
1724 3 2 0 12.16332839922963 46.96696610539984 159.87079340893254 1 -1 0
4955 46 5 1 19.965720958381798 46.49983353529017 167.1136889426486 0 2 0
6599 3 9 0 0.6940165374785378 54.85477396869477 152.84412834715104 1 -1 0
4116 28 5 1 7.424410494157498 42.2375470063815 170.22855963815002 1 2 0
4115 28 18 0 4.7822420555735174 40.23347988166043 168.70401325344338 1 2 0
5282 46 14 0 15.013386360795883 41.78595852497517 164.2057044891164 0 2 0
4965 46 3 1 17.472149873534814 43.57538124632399 167.13030521810055 0 2 0
1548 3 17 0 11.939957183012867 58.442197906289216 166.1481262083304 1 -1 0
317 62 2 0 2.37791805340839 57.86913887335213 167.6468872765684 1 2 0
2480 46 17 0 27.583630756895655 52.44740690382376 166.89742026874728 0 2 0
2117 46 2 0 22.790478434806115 55.143679915452715 150.5030615977197 0 2 0
2998 46 17 0 35.64686087184514 41.6174487113807 156.43472334402392 0 2 0
3107 46 17 0 40.45909734439361 45.573992721353285 151.5983745141359 0 2 0
3061 46 9 0 38.279138010811074 43.898458753129425 154.33751607794062 0 2 0
2118 46 9 0 24.766633819695382 53.30883292830807 153.26486750376156 0 2 0
6900 51 7 -1 25.280003157941987 41.34584085275479 159.89625176678854 1 2 0
6901 51 2 0 22.15024087268701 40.73496922415728 161.4631130306922 1 2 0
6745 51 2 0 25.517758144235852 40.1973414694465 155.05228026006725 1 2 0
6747 51 17 0 28.25304112568033 41.78024376712064 157.69393762015648 1 2 0
6744 51 14 0 23.179968515124642 40.18929147694013 151.94506791509144 1 2 0