LAMMPS data file via write_data, version 10 Mar 2021, timestep = 8504000

8505 atoms
40 atom types
8442 bonds
1 bond types

0 100 xlo xhi
0 100 ylo yhi
0 600 zlo zhi

Masses

1 131.2
2 57.05
3 128.2
4 101.1
5 156.2
6 71.08
7 115.1
8 129.1
9 163.2
10 99.06999999999999
11 113.2
12 128.1
13 186.2
14 147.2
15 87.08
16 137.1
17 114.1
18 97.12
19 103.1
20 113.2
21 131.2
22 57.05
23 128.2
24 101.1
25 156.2
26 71.08
27 115.1
28 129.1
29 163.2
30 99.06999999999999
31 113.2
32 128.1
33 186.2
34 147.2
35 87.08
36 137.1
37 114.1
38 97.12
39 103.1
40 113.2

Atoms # full

7954 9 15 0 38.10007410795765 53.71990793735526 132.92942313544995 0 0 0
8075 9 15 0 39.82182652616228 52.935320148957985 129.5224131153164 0 0 0
8225 9 2 0 46.39446221674889 54.4105587146333 134.13744506415634 0 0 0
8082 9 2 0 49.20094891372921 60.52124872544185 130.94178605783364 0 0 0
8226 9 2 0 45.46599473216398 55.496779257913246 137.63120113797467 0 0 0
8080 9 2 0 43.73651422490185 58.5174094609804 128.7386241028161 0 0 0
8079 9 2 0 41.20659953068485 55.92039690713921 128.43894410457895 0 0 0
8227 9 12 0 43.15579216054652 53.1529250268624 139.39820303015995 0 0 0
8081 9 15 0 47.39354569486796 58.83437953764896 128.2193034383314 0 0 0
8083 9 2 0 48.800322090993696 57.156037601645764 132.99775602327986 0 0 0
7952 9 2 0 40.13926655542068 59.67792014174102 135.89369288312324 0 0 0
7883 9 2 0 42.256320845869 61.61250844757862 138.21395920042966 0 0 0
7882 9 14 0 45.587808071277024 61.061622779570015 138.8039117517158 0 0 0
7743 9 17 0 45.94905961154813 62.411452484900934 142.5809772705802 0 0 0
7953 9 5 1 38.29686327750372 57.161068546165986 133.64035246046458 0 0 0
8228 9 14 0 46.003339413527605 52.356622765203404 141.92486208650863 0 0 0
8302 18 2 0 14.357509282406728 8.359609736220996 152.061231870807 1 1 0
8155 18 2 0 9.592753305146449 6.519371791192046 151.79820191299376 1 1 0
8154 18 15 0 8.38708797845905 4.657306336417695 154.71062988210713 1 1 0
8303 18 2 0 11.517139497525054 10.43851338824963 153.61011199346638 1 1 0
1266 34 5 1 3.773109272613172 12.04128818012348 158.1313933937588 0 0 0
1180 34 2 0 2.484749989579781 15.715504620729861 158.20071632049735 0 0 0
1179 34 2 0 0.8397640504523163 18.870424365060924 159.27658997302876 0 0 0
8153 18 2 0 5.518216440510818 2.332291794105557 155.28993982159406 1 1 0
8304 18 12 0 11.506488833835611 10.310606382410029 157.36409059441553 1 1 0
126 58 1 0 23.482272402764522 2.9018801590889 152.52564621547032 0 0 0
8011 18 15 0 6.055955058167116 1.0652057633312806 162.4586672519044 1 1 0
407 34 15 0 1.877040991524636 16.46508149146982 152.03260781476055 0 0 0
1388 34 2 0 8.087379555675977 14.44605112796033 163.37465571858777 0 0 0
8156 18 2 0 13.11572844388438 4.980462172596436 150.9970219424032 1 1 0
1387 34 2 0 5.418493615315652 11.76470256965288 162.05718111937702 0 0 0
8152 18 2 0 5.203818712516499 0.695840118174034 158.80467439920284 1 1 0
8305 18 14 0 11.630739101317431 7.725817568233314 160.19705393551624 1 1 0
8306 18 14 0 10.964441296939793 7.35293560234057 163.4000393316304 1 1 0
4490 18 2 0 0.4758429630533453 4.889537291255295 164.4294004538078 1 1 0
401 34 15 0 1.5868807187957605 12.610710350755785 152.52608338783742 0 0 0
5272 47 17 0 30.479577580322896 21.34122338464164 157.5944809353482 0 1 0
5249 47 2 0 31.656073987914958 18.466945124223994 151.8295805266975 0 1 0
5250 47 15 0 32.75179512752071 16.70250066809868 154.84901596471627 0 1 0
5251 47 2 0 33.29853132526134 19.067401150496952 157.62450578226233 0 1 0
128 58 15 0 28.369954573158562 7.196710963080628 151.4268977594319 0 0 0
127 58 6 0 26.01946528719364 4.790957216578531 150.11940741364288 0 0 0
129 58 6 0 27.7137696102088 8.582734660290866 154.7796726614385 0 0 0
463 58 15 0 31.163921768468 7.064423289061468 160.57419081961348 0 0 0
636 14 15 0 42.32471030926628 17.04990316581826 155.9872595777496 0 0 0
637 14 15 0 44.58446473918662 16.38552960673289 159.13910919022587 0 0 0
130 58 15 0 30.74022500259425 8.73151964603778 157.27422997426982 0 0 0
840 57 15 0 49.585825436409 14.894734936170925 150.73459724257003 1 1 0
635 14 15 0 38.876661149431506 17.5832665198138 155.28390442962052 0 0 0
634 14 15 0 37.066768913022415 20.809076229129552 154.5453686566264 0 0 0
464 58 15 0 32.00778872411137 5.876220989498985 164.10662143821577 0 0 0
4584 14 15 0 42.5004593208545 17.4474498848838 162.3893003543728 0 0 0
855 57 17 0 49.20044496720282 11.932218574908672 163.52860472469413 1 1 0
477 57 5 1 48.89096504736915 17.59841315199681 148.51172369240558 1 1 0
934 34 15 0 6.003522944649722 24.299666200907357 148.66358601769508 0 0 0
933 34 5 1 6.99173559025578 24.874004986127613 144.88973677127888 0 0 0
1177 34 14 0 6.349769767940507 22.703994476458142 158.45823413405904 0 0 0
1178 34 2 0 2.481326263453389 22.322683818275276 158.56192109171988 0 0 0
937 34 2 0 4.995736044653906 27.533058977008096 150.4498229561487 0 0 0
411 34 2 0 3.891264040305785 22.805664403428 144.49653876079284 0 0 0
938 34 15 0 3.4379564995604706 30.34720256247051 152.42679861064627 0 0 0
939 34 2 0 4.572000589011624 28.25143847929943 155.31546683402107 0 0 0
1347 49 2 0 10.890696063768496 42.04243016674041 153.0704936317215 2 1 0
951 34 17 0 7.339076812173862 25.910048138613067 156.79757874441637 0 0 0
1348 49 2 0 9.16458655814303 40.00280157379496 155.839885178324 2 1 0
410 34 5 1 0.11398967275828298 22.69806056531496 145.2812763641232 0 0 0
1349 49 2 0 7.732727810429644 39.71005562391851 159.32222474519867 2 1 0
5352 53 14 0 6.956006140616759 31.646046550149446 159.73517786366511 1 0 0
4437 56 2 0 8.562638706784895 23.057597651218888 164.61450936640054 1 0 0
5127 53 17 0 3.1432996590916686 30.683948491712606 160.7040733160262 1 0 0
5353 53 2 0 7.184594851274533 33.49251045387916 163.05150930604592 1 0 0
5354 53 2 0 5.079033760874816 36.29764682613647 164.34108690838963 1 0 0
4422 47 6 0 24.503620048038133 29.96620231027295 151.23929468933335 0 1 0
4421 47 15 0 21.17320178958669 32.373187703592095 150.45641414952442 0 1 0
4420 47 6 0 17.29128687148473 33.0518489736506 150.91503505965957 0 1 0
4419 47 1 0 16.078622299993146 34.78591408600572 147.73184198958518 0 1 0
5092 53 15 0 0.9405169719869548 35.8584593893034 156.21384068111888 1 0 0
4979 53 2 0 2.9130936039417126 37.54100648208824 158.8663716052446 1 0 0
5110 53 2 0 1.0212249022442883 32.88833980346672 158.77416879063279 1 0 0
4978 53 15 0 0.7556435219762623 37.654045840337254 162.3104446226258 1 0 0
5413 47 14 0 28.98980320231936 23.968677999970836 160.21210742499238 0 1 0
5415 47 2 0 32.20084619360664 26.04567412226605 164.4872066265419 0 1 0
5414 47 2 0 30.81146835816642 27.340878237531907 161.0896503103375 0 1 0
4746 47 15 0 28.68096071706463 35.08966577896456 148.5168106083075 0 1 0
4766 47 12 0 31.53707270858247 34.13500348773975 153.95049471143352 0 1 0
4735 47 15 0 26.109235098130817 31.98248276894083 148.54117860315827 0 1 0
5248 47 15 0 30.588584899388437 21.90235705731009 150.73049573003956 0 1 0
4747 47 15 0 27.830557059406875 35.449830834315826 152.18604957458342 0 1 0
4767 47 5 1 32.54683208607549 31.173634082167084 156.32496220332033 0 1 0
4873 47 2 0 31.89058750011982 27.865691063642892 154.74745208787536 0 1 0
5247 47 5 1 32.031127057952006 25.384852990335173 151.70200714572692 0 1 0
4796 9 15 0 44.18612195401272 36.88067670765934 157.52875289898293 0 0 0
261 14 2 0 38.317826646363 26.741287571513112 159.827472242569 0 0 0
260 14 14 0 38.501488379437056 29.63859982037146 162.34982821880476 0 0 0
4795 9 15 0 42.81457762393896 38.209157297844136 160.81890684325737 0 0 0
4356 9 2 0 40.8722371410228 40.95068193659954 154.7092705869519 0 0 0
4471 9 2 0 40.84040277569767 40.627664598611226 158.64893834686333 0 0 0
8389 9 17 0 44.64381873225725 41.23247074217209 144.2979765620429 0 0 0
633 14 15 0 39.414816434066665 23.08431129079433 156.3173585156758 0 0 0
262 14 2 0 36.41326492538908 23.94851815920114 158.43166592325906 0 0 0
4355 9 14 0 37.655739058113895 41.476692821121446 152.9840737366103 0 0 0
4358 9 12 0 41.125154453686605 40.846326407175695 145.0080052513177 0 0 0
4797 9 15 0 45.29985037295951 40.45732984718737 155.84885981189996 0 0 0
4798 9 15 0 49.077396127495376 41.759517225596724 155.6419018119129 0 0 0
1981 47 2 0 30.339655217542887 41.54139473273415 164.2223948258914 0 1 0
5639 47 14 0 43.6160045621303 24.392065934297122 163.66626180066504 0 1 0
5640 47 2 0 45.34194179410052 27.413867357048503 162.92823141984655 0 1 0
1357 49 2 0 4.354032163589175 43.195316400663344 154.244584455902 2 1 0
1351 49 2 0 5.413321228615263 44.10554040027663 157.76401530663162 2 1 0
1350 49 14 0 8.178871443463187 43.22757962193452 160.37320027119856 2 1 0
1248 49 5 1 12.597860845678078 45.513863811261956 153.8663062143957 2 1 0
1503 49 7 -1 0.7922089514214957 44.07203470735161 159.60733743963593 2 1 0
1509 49 17 0 1.5478460337298972 47.98305703068884 159.53911698455718 2 1 0
1502 49 17 0 0.6816136701635447 43.83407349811679 155.55760127919046 2 1 0
1132 49 2 0 14.139534592360532 45.573239284520696 157.36460161748772 2 1 0
3899 47 2 0 23.678006055022546 59.91530782363539 148.70154115014282 0 1 0
3900 47 15 0 20.20151360832409 60.40477142592061 146.47583209000655 0 1 0
1130 49 2 0 14.175210028477899 51.70916240754898 158.98248662842798 2 1 0
1131 49 2 0 15.766665561722764 48.80359543370096 157.3279392897751 2 1 0
4525 49 6 0 16.1551260173951 56.511931379019316 150.2148720883388 2 1 0
101 49 15 0 15.60590912491262 52.774158492852976 150.70097200339916 2 1 0
102 49 6 0 15.067277444432115 51.46689830160009 147.4512166382757 2 1 0
420 49 15 0 15.761821264110035 48.24447073719689 145.11499116559452 2 1 0
438 49 15 0 19.391825971409734 47.548783721126775 146.15900582800094 2 1 0
4526 49 1 0 13.48575315249197 57.6841254287526 148.49375834712546 2 1 0
816 49 2 0 9.103246830764201 59.19639625910037 159.0191780688259 2 1 0
1129 49 14 0 10.647534764558326 49.93552902029977 158.74847078461116 2 1 0
834 49 17 0 7.855828381221805 50.93570743211053 161.21354794233804 2 1 0
818 49 2 0 7.9670750183183605 54.81206167159335 160.80601059320207 2 1 0
814 49 5 1 16.096564828434545 57.30469097152415 157.0748292304911 2 1 0
815 49 15 0 12.75185251486374 59.237081725653304 157.4127681131866 2 1 0
5101 47 2 0 22.532445454622234 50.07561219040501 160.55710376881802 0 1 0
440 49 12 0 20.93031764163767 51.258105392257235 151.67567941752029 2 1 0
439 49 15 0 20.512189957519183 48.173083862998354 149.7395087049511 2 1 0
3174 47 17 0 21.323384149705713 62.31634551660267 162.1805268138233 0 1 0
817 49 15 0 7.357452684186303 56.211832076768346 157.31611691043733 2 1 0
442 49 2 0 18.00222680750476 53.54504188134888 156.27373924051503 2 1 0
3175 47 12 0 22.905026630505077 60.26779147907762 159.48740041358167 0 1 0
5102 47 15 0 19.7814357744072 52.168508456906444 162.12002436987032 0 1 0
3901 47 2 0 17.345266656853926 63.1963594898503 146.46046843858272 0 1 0
441 49 5 1 21.162014898413133 53.66858785522725 154.7223100179135 2 1 0
2229 18 2 0 0.44016659003742586 53.86080716681754 164.33555780148453 1 0 0
1553 49 14 0 3.4440571078315028 49.8097142796264 156.5579416506723 2 1 0
1715 49 5 1 2.07360648346581 46.96153418500415 149.44185864184115 2 1 0
1561 49 2 0 2.7664204737668343 49.291412463853625 152.54039672425307 2 1 0
3257 53 2 0 1.0856035800870962 63.432530086732925 153.776325677438 1 0 0
3258 53 18 0 4.772550776755118 62.954649154838926 154.2963003724439 1 0 0
6516 18 7 -1 0.009386330378816865 62.792462960047295 162.02857634758587 1 0 0
4309 47 2 0 33.710485388202976 63.00119694597299 146.75580685729213 0 1 0
4354 9 2 0 37.20063431862738 43.60210049095022 149.26428557931663 0 0 0
1982 47 15 0 28.66460141834787 44.61974613538908 162.77330566468018 0 1 0
3898 47 2 0 25.848568665957085 56.79293491366901 149.39534010851176 0 1 0
3897 47 15 0 25.680461671924174 55.53528263254787 145.70721355394787 0 1 0
3740 47 5 1 30.261674342844664 50.061851832911735 147.28067166576778 0 1 0
3741 47 15 0 27.40042141151596 52.04872915770907 145.3946760202346 0 1 0
3327 47 15 0 26.25778045299135 61.60303724227103 160.22453924858218 0 1 0
3333 47 15 0 29.426227934891077 62.391728032990976 162.0620161950986 0 1 0
3334 47 17 0 29.77540047515748 60.11425320396137 164.72447869549848 0 1 0
7566 9 17 0 47.75681811334392 53.802751629872255 163.5189032962789 0 0 0
4340 9 2 0 38.722136958374215 43.608682186420666 145.67945790219096 0 0 0
3623 47 2 0 34.061570223318036 53.48446741941965 150.25497598012214 0 1 0
5100 47 14 0 25.69397104822788 51.88784425264629 159.66333120849708 0 1 0
3739 47 2 0 30.034533833990338 52.56741849500738 150.15627766738163 0 1 0
4627 47 15 0 32.73266096144499 59.47571265866112 150.79520729011608 0 1 0
8382 9 6 0 46.46251071355803 51.875533560249536 148.27906188678705 0 0 0
8386 9 3 1 46.07094828421449 49.12269403643511 150.50708099196615 0 0 0
3611 47 14 0 34.709584295974054 54.28024738962742 154.14805042714065 0 1 0
3526 47 17 0 34.550489472442976 57.88702010130373 156.14135967597028 0 1 0
3525 47 2 0 32.555088615522614 58.18065144671887 159.4138366082175 0 1 0
3524 47 2 0 34.75268094591659 60.198281615075715 161.38840374978375 0 1 0
4738 47 15 0 29.85589041376205 57.97945845560547 152.5558779006415 0 1 0
4768 47 15 0 27.892498576872015 53.634644235696854 157.15193435674465 0 1 0
3523 47 3 1 35.93230264981176 61.92923427622813 164.36754245302797 0 1 0
4748 47 15 0 28.03756184990058 55.00845476317946 153.6121062949388 0 1 0
4618 47 15 0 35.74324157191553 59.04457585740949 148.56609773021063 0 1 0
4617 47 15 0 36.59982438794726 60.79861142237111 145.57630273124906 0 1 0
8388 9 5 1 46.026877816293194 44.985298678457454 144.5343235365804 0 0 0
8387 9 18 0 46.746601167495584 46.115002309328496 148.15131122577114 0 0 0
8229 9 14 0 45.597451308697 53.776284388254055 145.3428042914969 0 0 0
7742 9 2 0 44.327453351646966 61.56557594590419 146.1414927420193 0 0 0
7567 9 14 0 43.854888485455916 53.882619120398175 164.40035831670056 0 0 0
7573 9 2 0 42.64982988143813 55.265977011328836 161.273879339887 0 0 0
7574 9 18 0 43.86097559970772 58.106226573760274 159.43756748347477 0 0 0
7741 9 2 0 44.57649785693951 60.405419908624765 149.63876320349266 0 0 0
7740 9 3 1 44.98272098821865 61.69717845289675 153.3946630882326 0 0 0
7739 9 1 0 42.66442859867333 60.450992797564176 156.55791272230258 0 0 0
4489 18 2 0 4.093038535509635 4.963929749773202 165.54830077777655 1 1 0
4436 56 2 0 6.987808982990901 20.19302425389963 166.29572621305164 1 0 0
1389 34 2 0 9.166750090696826 15.346714474753748 166.93944049005285 0 0 0
1390 34 14 0 10.374693601941015 14.018233066769618 170.24607450322344 0 0 0
8464 18 6 0 13.726725450799515 7.920723838079544 165.9072565334386 1 1 0
8466 18 3 1 16.10582423925438 6.9500560109625615 168.82364294972814 1 1 0
8467 18 18 0 14.596521332973046 5.496789040637504 171.73534498162292 1 1 0
8445 56 3 1 3.959859824863804 10.92224789843954 178.6121360165537 1 0 0
8468 18 5 1 11.663908888616614 3.599863544001499 172.4347332358277 1 1 0
8278 56 6 0 0.6981718331481819 13.093722007000155 179.14511380694418 1 0 0
8446 56 18 0 4.769320394029504 13.34199065967389 175.91769895529652 1 0 0
8447 56 5 1 3.339928378056111 16.580676372091766 173.77892973061563 1 0 0
6582 51 7 -1 4.419376301077084 16.645581158205975 183.59166825737105 1 1 0
6583 51 2 0 3.6175196965881877 20.178368318347566 183.1526728497189 1 1 0
1391 34 2 0 12.075280653003194 15.667289798494583 173.05217256126875 0 0 0
1393 34 2 0 13.484526320711185 19.157141572943797 173.0934075079606 0 0 0
8449 56 12 0 3.4432673250935393 21.135637861301596 167.68121455736738 1 0 0
8448 56 17 0 3.3388768445685773 19.649705083404044 171.5148502912307 1 0 0
6581 51 2 0 7.378756986726234 14.024701052096603 183.92834375672365 1 1 0
8469 18 17 0 9.256907747340566 2.8960584401865552 169.50243277067415 1 1 0
8463 18 12 0 5.770429014884302 4.258864986862471 168.61037676312995 1 1 0
1175 27 2 0 0.007410651682775109 5.685381315946532 185.073405434662 0 1 0
7135 28 2 0 49.486605830461066 14.285331327413305 182.12716651314147 0 1 0
7137 28 2 0 48.86343279295202 20.53369919171352 182.45299220167217 0 1 0
465 58 12 0 33.11589199111083 8.825541900800733 166.34422615355493 0 0 0
466 58 5 1 35.86719699637161 10.102545200790246 168.30951711817264 0 0 0
4924 14 14 0 43.70069896038974 17.695616926892498 165.74991523528354 0 0 0
4925 14 2 0 42.69777409126888 14.221498712262997 167.3580368015766 0 0 0
4927 14 2 0 42.5535813928877 12.750845057305819 171.2639755978419 0 0 0
4926 14 15 0 45.06303104035934 11.483791346299297 168.76007951561618 0 0 0
5287 14 14 0 42.45757519777195 14.898607168684876 180.38296719123102 0 0 0
4928 14 5 1 40.98825304854134 11.683798002653218 174.26349888069996 0 0 0
4934 14 5 1 40.0864901387392 13.67743166155562 177.37367449843254 0 0 0
6665 10 2 0 39.8792532141508 20.189505558835126 182.01989724938065 0 1 0
6664 10 14 0 43.059791045167316 19.438464634109742 184.8392518730615 0 1 0
844 58 5 1 33.78267835619331 10.497403388109992 174.25639167292536 0 0 0
467 58 2 0 36.25724352447808 8.647036727982568 171.5631272099185 0 0 0
996 58 15 0 39.51450381800427 6.983117151865581 180.78493086092942 0 0 0
6837 10 7 -1 34.084241430216984 18.42204838183209 180.39538674568973 0 1 0
6666 10 17 0 37.08578793728959 17.582873348820247 183.04962642844754 0 1 0
854 58 15 0 35.192939917152835 7.676073651406944 176.47516802328235 0 0 0
6838 10 2 0 30.971687179814445 19.39162319713108 181.23917892612909 0 1 0
997 58 2 0 41.90670562002806 4.984370295073805 182.98600792125868 0 0 0
995 58 2 0 37.62750292382804 5.198125079296848 177.9468254931672 0 0 0
1200 58 17 0 45.51000854580234 4.367443801768991 184.16839151070644 0 0 0
1201 58 14 0 48.79303783721289 4.177101787405402 183.53768790947194 0 0 0
7136 28 2 0 49.20914170442092 17.31939059666859 180.0090890332086 0 1 0
4440 56 2 0 7.874080189665216 32.6536919640415 169.1242157626577 1 0 0
4438 56 14 0 7.826336801205305 26.702732688392505 165.19329424753522 1 0 0
1702 34 2 0 11.634051450080376 41.254205134498676 167.64399528906338 0 0 0
5355 53 2 0 5.65196853370998 40.01001291110758 165.0597826845319 1 0 0
7269 51 17 0 1.884579631811923 42.67323720415919 172.98269078670293 1 1 0
1541 34 17 0 11.80497241551926 22.755209404276023 173.42538368980829 0 0 0
1542 34 7 -1 13.358032221919027 24.86990648433152 170.53294519715152 0 0 0
1700 34 5 1 16.88571838363365 37.39556848402582 165.56410306174791 0 0 0
4439 56 2 0 6.370880139304668 29.43869844041421 167.66788457152123 1 0 0
1543 34 17 0 12.867241593382444 28.276898180427025 169.26776180052013 0 0 0
4444 56 15 0 6.38717490419932 35.54735317999225 170.9983769980141 1 0 0
2130 47 2 0 20.942565949727186 41.960238537841114 170.94527249493598 0 1 0
2132 47 14 0 24.577241651570002 39.61720093008315 175.11120552699688 0 1 0
2131 47 2 0 24.694345394871302 41.79162225094303 171.89822601490602 0 1 0
1544 34 14 0 14.906891061297648 30.404576491767827 166.83294337836895 0 0 0
2079 34 2 0 9.763184764762945 36.292574571774935 175.76736431924454 0 0 0
1701 34 2 0 13.6395032185672 38.02956355377338 167.5400876888784 0 0 0
2078 34 14 0 13.301064189758703 35.926606717421386 176.32841408299862 0 0 0
1921 34 2 0 13.04018540339572 37.6487483432146 182.51623496342418 0 0 0
1922 34 2 0 13.010153128162335 35.05381439113074 179.92409057599502 0 0 0
1894 34 5 1 15.63838350825828 40.19840066158935 181.5245110269184 0 0 0
1546 34 2 0 16.54757127232357 33.75303665747352 166.001310097183 0 0 0
1704 34 14 0 12.232550043667098 42.220816609677286 173.13046426384594 0 0 0
6760 51 14 0 8.83733713595884 30.482753002393103 180.1832152593262 1 1 0
2080 34 2 0 7.77425360962833 39.51732796178014 176.91068095009715 0 0 0
6757 51 14 0 6.066645916555257 21.9650112678429 181.03741091418803 1 1 0
6759 51 2 0 5.885948311593154 28.14382257885378 179.47591713369746 1 1 0
6761 51 2 0 7.806835833529725 33.97153200567857 181.85427213698966 1 1 0
6758 51 17 0 4.761945877006606 24.678629007492454 178.14824829044224 1 1 0
4761 56 15 0 5.395123324892417 32.65276319445083 173.28723817928008 1 0 0
3472 14 17 0 21.49038407749052 39.312498810548725 184.61619026889795 0 0 0
2083 34 2 0 1.6664668196270362 36.92741779922616 182.9654698287128 0 0 0
2081 34 15 0 5.471504954356062 39.78111346745189 179.7027248786901 0 0 0
2239 34 2 0 2.1482203264669795 33.91450357828563 185.10854498534997 0 0 0
2082 34 5 1 2.2759653996032174 40.38984284159072 181.10389160880516 0 0 0
3595 14 14 0 24.202562385915105 38.87040012555088 181.8612635738673 0 0 0
4762 56 15 0 3.368035203334701 33.828170779779605 176.20893527377243 1 0 0
4763 56 15 0 0.5253516186443759 36.17086102876793 175.02000278098885 1 0 0
5479 47 5 1 32.66747296636387 22.434904511734107 168.2607752183776 0 1 0
5478 47 2 0 30.650983444384522 22.456195331561695 164.94548712635356 0 1 0
5636 47 2 0 35.13447273716543 25.03960453710811 168.91754146477695 0 1 0
272 14 12 0 40.397582151985944 36.3521782469837 168.47889390464437 0 0 0
4223 14 17 0 41.584432684988194 39.86622332281334 167.21051260358234 0 0 0
1980 47 2 0 29.631440925237097 39.65293803716445 167.42611233953696 0 1 0
4168 14 5 1 43.98911534689446 41.57181256633156 169.75648642183785 0 0 0
2133 47 2 0 27.222179991539736 37.247972262152636 174.33347658774053 0 1 0
258 14 2 0 38.944496098173175 34.51609479349041 165.67679380301422 0 0 0
259 14 2 0 40.42230754044081 30.93370238608714 165.77959289103833 0 0 0
5637 47 2 0 38.12762398992651 24.947893767545402 166.8165810897248 0 1 0
5646 47 2 0 45.86202805202929 29.178514598485076 166.4042872202255 0 1 0
2305 47 2 0 25.917837344705408 34.07978113234922 173.34877190032196 0 1 0
1979 47 14 0 32.56455154129938 37.42713759069888 168.8333481209369 0 1 0
2385 41 2 0 48.382607756020185 38.2006408455395 172.66700780076488 0 0 0
1861 47 2 0 34.123731942614455 38.40991773308311 172.45345369604445 0 1 0
1860 47 2 0 33.41464366372573 35.35323679544853 174.31861716541016 0 1 0
5638 47 2 0 41.25056779308856 22.69769042267335 166.06670866924642 0 1 0
1790 47 15 0 33.83602088793808 28.601094543466353 179.33198088937488 0 1 0
1791 47 2 0 33.1792992240041 30.45356046269846 176.08393303766402 0 1 0
2307 47 2 0 30.094979462042627 33.682625293014 178.03758917686645 0 1 0
5974 47 2 0 42.0110461861958 30.928511228084194 185.1474793680205 0 1 0
2306 47 15 0 27.85018866611752 31.671737625949778 175.38215930839382 0 1 0
2308 47 7 -1 32.5895378751616 34.929327200887464 180.7896032085174 0 1 0
1859 47 5 1 35.12288068796237 32.10370762843698 173.33552910602225 0 1 0
2492 47 14 0 37.91301749954479 37.724605605835855 179.65537241383578 0 1 0
2309 47 2 0 35.738317809140014 36.349356622647434 182.4857186492432 0 1 0
2493 47 17 0 41.527096563794 37.872403624347506 178.98037531688658 0 1 0
2494 47 2 0 42.52658913869545 40.872659976103144 181.7966571004734 0 1 0
5976 47 14 0 36.76322523370038 29.91406516559717 181.31217433010033 0 1 0
5809 47 14 0 41.8465014491158 32.70784571271995 173.93951098679463 0 1 0
5975 47 17 0 39.17703882228471 32.12635643193136 183.10817321868254 0 1 0
5973 47 2 0 42.68402088100697 27.79437224542398 182.79102026920026 0 1 0
5972 47 5 1 44.3510426473906 28.765387022807055 179.6001146325104 0 1 0
5820 47 2 0 43.99394016027904 31.15670950908214 176.8010210764726 0 1 0
5808 47 17 0 44.769822006066065 34.25339849531952 171.65393855683746 0 1 0
5807 47 7 -1 48.12642635975216 32.49262455100568 171.88589803058574 0 1 0
5806 47 17 0 48.18930062196215 31.163570301184638 168.00198465969603 0 1 0
2386 41 15 0 48.22676359072358 36.767195567269596 176.59228425949502 0 0 0
3596 14 2 0 27.047478497138194 41.41139400104532 182.3104955600039 0 0 0
2203 41 2 0 47.679565162649055 41.55108388686825 174.38411488869107 0 0 0
2872 47 2 0 29.360605560423753 40.95827796772322 172.68393958233185 0 1 0
2873 47 2 0 31.16410548316864 41.72505885264963 176.02309906826736 0 1 0
6839 10 15 0 31.52002762821977 21.6252527234153 184.2096050926973 0 1 0
1176 28 14 0 47.34586202416301 37.546207539251526 183.22098220988826 0 1 0
2650 47 17 0 35.42041473151172 42.21678317379604 183.76842031142485 0 1 0
7104 51 15 0 7.399576075639562 47.41143382904794 174.74137590296792 1 1 0
1998 47 2 0 24.600254355690133 44.462503618539145 165.41569226890905 0 1 0
6668 18 14 0 2.6690703644898983 61.721508350719326 167.88894873666388 1 0 0
6669 18 17 0 3.5117455100225365 60.65466185405829 171.6931151235884 1 0 0
5461 53 5 1 3.632939782744656 43.195723882372526 165.55472886460035 1 0 0
5580 53 2 0 2.163270483385261 45.47267078053207 168.09334615303345 1 0 0
7268 51 14 0 4.802337904967345 44.812987655688275 174.1154340923698 1 1 0
2129 47 2 0 22.473195642215664 44.33246161473074 168.59292162740695 0 1 0
1814 34 2 0 13.240282222102481 42.930930580076506 180.08790875382357 0 0 0
1813 34 15 0 13.635906194828097 43.98932695212353 176.6638978195872 0 0 0
1703 34 17 0 10.33830330507527 43.94869742051832 170.25593044019394 0 0 0
7103 51 2 0 6.367519110843219 50.932823026091576 176.4804905732978 1 1 0
7101 51 2 0 6.75827586997228 48.508496537411084 182.6732914348003 1 1 0
7102 51 2 0 5.009122159924237 49.26720569345818 179.35663852143912 1 1 0
3172 47 14 0 21.841760426127717 60.362438258748654 168.25794701416498 0 1 0
3173 47 17 0 23.066636323880953 62.796726531348476 165.49743449960582 0 1 0
6486 53 2 0 6.467942171010364 60.92261630128374 179.6033172810421 1 0 0
6670 18 2 0 6.288478851731416 60.13657881916288 174.1813903850044 1 0 0
6671 18 14 0 8.811584433680947 62.81112079729129 174.28970934819074 1 0 0
6672 18 2 0 11.746619757656172 61.85573973712223 172.06035732049813 1 0 0
6848 18 7 -1 16.137779153428475 56.57369166353929 174.27692783144798 1 0 0
6678 18 17 0 14.993676339716119 59.64739336617553 172.80283359127145 1 0 0
6040 53 15 0 8.85406000610895 52.025584775310826 168.66272850887958 1 0 0
6125 53 5 1 13.89721622361872 47.37181799320134 166.3193852103924 1 0 0
6337 53 2 0 10.28247599726931 52.11286106246449 182.23224992035102 1 0 0
6041 53 2 0 11.010057649938435 49.41581257556966 167.44471064932796 1 0 0
2998 47 14 0 23.486455270826642 46.29933583554224 178.4975373692139 0 1 0
2999 47 17 0 22.691677024188646 49.87755294340059 179.3917767506669 0 1 0
3000 47 7 -1 22.15573539188733 53.10443855803099 177.4741409729574 0 1 0
6126 53 2 0 15.674943432835397 46.365199892535365 169.83756021123122 1 0 0
6127 53 2 0 18.984981939490396 47.62592551451953 171.7310858163049 1 0 0
6129 53 14 0 17.125790297086763 50.87189286704164 172.20195362390308 1 0 0
6260 53 2 0 16.078194323524585 48.8254896470644 174.88751038771932 1 0 0
5907 53 14 0 6.07882633927925 54.340714631922985 168.30225760680466 1 0 0
6330 53 5 1 11.635430998338357 50.167549405941116 179.27324159945775 1 0 0
6329 53 15 0 14.98356932019441 50.4933868937533 180.11047932180153 1 0 0
6263 53 2 0 16.93195972890621 47.57013345536657 178.2140484431221 1 0 0
5104 47 5 1 21.532553044737096 53.803374064098136 168.09861735009372 0 1 0
6485 53 2 0 9.287862027532837 58.514389379668714 180.72853902387232 1 0 0
6484 53 2 0 11.396658276480062 55.791648957581735 181.9353203763746 1 0 0
6849 18 2 0 14.327372258951279 56.5494694209053 177.77967088441125 1 0 0
6850 18 15 0 16.635504605856134 59.42677191590038 178.4464790517259 1 0 0
7100 51 2 0 9.24077866447578 46.008078306016614 184.03496893695606 1 1 0
6851 18 17 0 17.679700534576597 63.08997129692474 177.9602540027857 1 0 0
5906 53 17 0 4.166525875906466 52.72116139475477 171.2815238083622 1 0 0
6684 34 2 0 22.10095277642671 58.67646633220951 185.31758614072803 0 0 0
6683 34 14 0 18.421822242060426 59.44502965307583 184.52994243743035 0 0 0
5581 53 2 0 0.4634803323009293 49.055088599583605 168.87047694685515 1 0 0
5905 53 2 0 4.833894743622984 54.82174438864637 174.80912879108018 1 0 0
5904 53 2 0 0.9641037366681658 54.21315399004184 175.20420115519855 1 0 0
3041 47 2 0 22.779875989019153 59.22598236333232 174.9847809916447 0 1 0
5103 47 2 0 22.10729246405711 51.85540723581737 164.8571844732818 0 1 0
3170 47 17 0 23.41276789785631 60.62442547520182 171.5803292968767 0 1 0
3040 47 14 0 23.468364399259215 56.779374574529186 177.7149571183993 0 1 0
5129 47 5 1 24.54934902954953 52.98676704278431 170.17578751074637 0 1 0
6487 53 14 0 4.045640205578208 63.47826161458925 180.46723799763245 1 0 0
5582 53 2 0 0.44162902004196586 48.02581164831899 164.92688415998262 1 0 0
6488 53 2 0 2.3418459800789786 61.243036372964376 177.90023820740595 1 0 0
7065 18 2 0 14.353924844489217 63.763249667904596 184.8978727134463 1 0 0
6860 34 15 0 20.12011071410777 50.45309113453076 185.13741364029738 0 0 0
1983 47 5 1 27.458816853662697 47.32953969490152 165.05495650513075 0 1 0
1895 41 5 1 46.2223532961042 47.62446894754721 184.72964591979672 0 0 0
4167 14 18 0 41.07548034076798 43.81970110242437 170.85158407415656 0 0 0
4166 14 3 1 39.53454121937849 47.46410780312379 170.85095817343904 0 0 0
4161 14 6 0 37.38163766933712 49.21182693846924 168.38043933945553 0 0 0
3973 14 14 0 34.53494106425745 51.539137456818516 167.78428219133804 0 0 0
3335 47 14 0 28.36507639689244 58.844559395993834 168.235296807679 0 1 0
3336 47 2 0 30.643375672292688 60.78279077342418 170.47884239323474 0 1 0
3337 47 18 0 34.39062773128212 59.844635760398965 170.41312163381892 0 1 0
3522 47 1 0 36.67695207090699 61.913208057294256 167.81702223963492 0 1 0
2038 41 2 0 48.48844745962362 52.541791772558284 182.77325339291957 0 0 0
1708 41 17 0 44.30212814636064 54.76540422121181 179.205768438807 0 0 0
2657 47 7 -1 37.436157448428105 43.6929742076741 181.1624441564979 0 1 0
2667 47 15 0 35.877368328752375 45.57938558924242 176.2084718871488 0 1 0
2721 47 17 0 34.5475092735639 43.9616698942997 172.98119896018554 0 1 0
2722 47 14 0 33.04232353132539 44.37049478190774 169.68429877821953 0 1 0
2871 47 2 0 29.462134923933657 44.15075493651491 170.4392778344561 0 1 0
2658 47 2 0 35.23954608533612 46.31897129816568 179.689438346555 0 1 0
6858 34 7 -1 25.3951316010309 53.14916839824057 184.73267409333528 0 0 0
6685 34 17 0 25.245935626295125 56.8899175337739 184.1493351186251 0 0 0
1337 41 2 0 45.35847955354953 58.6760292933582 174.71632663963663 0 0 0
1338 41 2 0 42.92133285837067 57.066609903545626 172.09200392916202 0 0 0
1339 41 2 0 39.74220827853962 57.90262419157692 173.93765274520982 0 0 0