LAMMPS data file via write_data, version 10 Mar 2021, timestep = 8504000

8505 atoms
40 atom types
8442 bonds
1 bond types

0 100 xlo xhi
0 100 ylo yhi
0 1000 zlo zhi

Masses

1 131.2
2 57.05
3 128.2
4 101.1
5 156.2
6 71.08
7 115.1
8 129.1
9 163.2
10 99.06999999999999
11 113.2
12 128.1
13 186.2
14 147.2
15 87.08
16 137.1
17 114.1
18 97.12
19 103.1
20 113.2
21 131.2
22 57.05
23 128.2
24 101.1
25 156.2
26 71.08
27 115.1
28 129.1
29 163.2
30 99.06999999999999
31 113.2
32 128.1
33 186.2
34 147.2
35 87.08
36 137.1
37 114.1
38 97.12
39 103.1
40 113.2

Atoms # full

5061 37 2 0 1.4773439932561865 38.69487440413225 86.37298252863002 0 0 0
4952 37 7 -1 0.4156791834053212 34.938951283907265 83.07014136320193 0 0 0
5060 37 5 1 0.5953425394990388 38.36303332734622 82.71706483212716 0 0 0
4238 47 6 0 29.370621095747317 32.22783786037481 96.73780696923755 0 -1 0
4064 47 14 0 30.94639725232665 35.1881818140888 95.74291680022554 0 -1 0
4062 47 12 0 28.322585966521203 39.86042589259487 90.53500887939147 0 -1 0
4240 47 3 1 26.450134439876685 29.56590093380274 96.59401092298094 0 -1 0
4063 47 9 0 29.126253160799447 36.980638727402116 92.81687221497349 0 -1 0
3508 47 2 0 35.78958923573137 28.91111687277136 96.70944417881061 0 -1 0
3608 47 5 1 39.727656784052634 38.89805024400968 96.08340293903953 0 -1 0
4606 47 15 0 20.900054657210585 51.01830489117515 96.75633393245313 0 -1 0
4301 47 2 0 20.78218752227647 45.73925733270363 96.99753480285908 0 -1 0
399 34 15 0 2.663698240557751 52.93785759899415 91.38296684709303 0 0 0
4607 47 15 0 19.728426994304552 52.34057347333278 93.42623333992259 0 -1 0
4720 47 15 0 21.762670926083693 54.75228523307539 91.63140939389615 0 -1 0
4727 47 15 0 24.023190512349373 57.89999120766481 92.64252049281593 0 -1 0
4299 47 2 0 22.169229136929893 40.55115480198065 96.63799422140579 0 -1 0
401 34 5 1 6.59443941698797 47.29612364012695 91.70383439516928 0 0 0
402 34 7 -1 8.865174638154816 45.065601374532626 94.0517084352695 0 0 0
400 34 12 0 4.954087637581889 50.21449524679202 92.9070889457366 0 0 0
3883 47 15 0 35.892421288430945 52.328606556941835 92.5160696395506 0 -1 0
3716 47 5 1 37.34920117347558 45.83057777385088 94.61837201469368 0 -1 0
3717 47 15 0 35.83731930484204 48.3838363341216 91.86034489339585 0 -1 0
3715 47 7 -1 37.9014020534303 42.378253833636805 95.93845793760157 0 -1 0
4061 47 2 0 30.45994450204224 42.38608610066063 87.94644558629882 0 -1 0
4060 47 2 0 27.468593096342968 44.78074099731108 88.41214655243922 0 -1 0
3884 47 2 0 34.61044304179786 55.31381129688438 94.65433061632038 0 -1 0
3887 47 7 -1 28.29974152001517 49.37509878397815 92.32285241556588 0 -1 0
4056 47 5 1 26.649307761496395 46.45083802513739 91.93478312703316 0 -1 0
3886 47 9 0 29.871164762452253 52.61513690754324 91.2620940505931 0 -1 0
3885 47 18 0 31.32287398022961 55.64565367318167 92.75404000937543 0 -1 0
6318 29 5 1 45.42098926631486 58.49165239225006 89.21496661627322 1 1 0
6317 29 15 0 44.4698231063184 55.5274535210365 86.87425181473681 1 1 0
6261 29 2 0 46.793841798073984 50.43859868880026 90.33282044882839 1 1 0
6131 29 2 0 44.53193341707379 51.523581401065194 94.3259765460655 1 1 0
6260 29 14 0 43.214155249844886 49.387735348723986 91.32982910529996 1 1 0
6316 29 2 0 46.57196951215242 52.526484364426324 87.15092963100771 1 1 0
4737 47 5 1 26.415959650338138 57.99796787846628 95.32502252202238 0 -1 0
5084 47 15 0 26.32046476152329 54.628876252721 96.87714050909265 0 -1 0
6326 29 2 0 44.73638435999472 58.12979131352315 92.78399627724698 1 1 0
6469 29 7 -1 41.67923262628903 59.7905873253169 94.6120366617831 1 1 0
531 29 15 0 18.513934442531177 3.492515103797241 104.9301951832985 1 2 0
533 29 15 0 18.45228785984454 6.846148085228777 105.35817646271177 1 2 0
532 29 5 1 18.195432246555256 10.283300978914829 107.41711189472528 1 2 0
914 29 9 0 19.217583303246908 11.422543205893806 114.33569686395253 1 2 0
915 29 2 0 22.18394667270413 14.042608433062219 115.48898682715595 1 2 0
535 29 15 0 17.999458357305986 9.360873891688273 111.29903535688948 1 2 0
530 29 15 0 15.920713050483469 0.5116156153622039 104.96568809097506 1 2 0
1213 28 7 -1 2.8684730553176117 19.03189326089454 114.21586695575242 0 1 1
5331 22 2 0 24.77121453525923 5.933855179635862 112.16225557889521 -1 1 1
5330 22 7 -1 22.426160359581978 3.4021367147099095 114.0828646044517 -1 1 1
5559 22 2 0 28.4364462337721 8.564822986416363 112.15119519840086 -1 1 1
5468 22 5 1 27.240720579261957 6.831895530929598 109.48016810081783 -1 1 1
5560 22 2 0 28.661233467711156 8.32650371795502 115.75992369503531 -1 1 1
180 28 1 0 14.57118379883274 34.07177216018798 102.22838533750529 0 1 1
191 28 6 0 11.813167083014214 32.27948320265437 100.27337411123929 0 1 1
181 28 15 0 13.810145863263793 28.25658954905247 100.54346811942641 0 1 1
5287 28 2 0 1.764650844821338 22.421273936270463 114.20999383249789 0 1 1
281 28 6 0 15.437204232226303 25.240763036352124 102.34223541349748 0 1 1
4241 47 18 0 24.98618990153834 32.086146591401956 99.33609265382081 0 -1 0
1030 28 5 1 12.794626320054272 35.40174470077928 114.4767932944604 0 1 1
648 28 7 -1 15.41404927034508 32.287457579278716 113.79097396959159 0 1 1
635 28 15 0 14.942918447559304 22.404190710291797 106.41948994128512 0 1 1
647 28 5 1 14.850141979818396 30.618394179278265 110.34736193190093 0 1 1
646 28 12 0 13.049717796317118 27.77405244312948 108.49205237641901 0 1 1
645 28 15 0 13.82972186338382 24.05340229858247 109.3884225957408 0 1 1
505 28 7 -1 13.32764774507254 21.930018101659503 103.14986770214855 0 1 1
8384 47 17 0 22.398153265791294 35.15596806153074 104.06415259331857 0 -1 0
8383 47 5 1 22.342825440609666 31.78932920064742 102.2066328380532 0 -1 0
3318 47 15 0 23.963957470134098 38.58616468285397 112.37224263056471 0 -1 0
4310 47 12 0 22.095365778521156 38.26748864741198 102.21204195374862 0 -1 0
4298 47 2 0 20.761205828574116 37.87328760238861 98.75836199435776 0 -1 0
5451 28 5 1 2.2875877111574123 25.841925518819238 113.20564549526634 0 1 1
5513 28 2 0 1.841219003530636 28.231682350606473 104.06628299591141 0 1 1
5518 28 2 0 2.5373126093099607 25.52850584808746 106.71991016111268 0 1 1
5512 28 2 0 3.924472628554974 27.225143698173866 109.94058297397397 0 1 1
3507 47 2 0 34.00088769471704 25.36921554819954 97.59859844896631 0 -1 0
3509 47 17 0 37.23440701355755 32.56037494236764 97.36208992793853 0 -1 0
3598 47 14 0 38.26908216221832 36.29166258829055 98.46489046665282 0 -1 0
3506 47 3 1 30.970491389058946 25.91278764216195 100.23423261399265 0 -1 0
3328 47 18 0 27.698867735471584 28.807332040626573 104.34748640594125 0 -1 0
3505 47 1 0 27.164104716172464 26.35012869675994 101.45833345829779 0 -1 0
3327 47 7 -1 30.234331509627633 30.681094025141682 106.45672455897895 0 -1 0
2996 47 17 0 46.01109528693332 37.74043272281234 100.86848387649202 0 -1 0
4285 29 6 0 45.054956356225205 25.466608297946028 107.80375818678294 1 1 0
4279 29 1 0 43.8185433407948 23.214624743811985 105.29864134482297 1 1 0
4280 29 15 0 45.39615033994847 25.809292759525633 111.96691577345896 1 1 0
3326 47 14 0 28.092188725965805 33.825122203174566 107.75179464039135 0 -1 0
3325 47 17 0 26.731066154579278 33.796344498872074 111.21510300355511 0 -1 0
4585 29 5 1 32.906082182585756 33.37478511233002 113.63660450812107 1 1 0
4582 29 15 0 37.468215117864375 26.096486056059206 113.5030524798837 1 1 0
4574 29 7 -1 40.58290845079321 26.066051855396648 115.78058800519818 1 1 0
4286 29 6 0 42.44595137761625 28.056213768046813 113.29603979650463 1 1 0
3324 47 15 0 27.50100294698165 37.547206756475724 112.44038888511199 0 -1 0
3172 47 9 0 32.22592033980646 39.41873781494621 104.2706262646921 0 -1 0
3170 47 17 0 34.47820788543211 36.14439546308132 104.96193623560694 0 -1 0
2998 47 14 0 42.02201459455321 34.09682970586863 105.48985080429038 0 -1 0
3040 47 2 0 38.43094259710115 35.01956589189365 106.22019709773458 0 -1 0
2997 47 7 -1 45.2354340028548 35.59072786487279 104.10128447836465 0 -1 0
4584 29 12 0 32.984833521346694 29.735045156207008 114.67854721112559 1 1 0
4583 29 15 0 34.7853038027803 26.383886879732128 116.23299542667918 1 1 0
4586 29 7 -1 34.44438427774481 36.15352075030688 111.85250734526686 1 1 0
4939 29 5 1 36.14593982654441 39.88599379217961 112.32085678382401 1 1 0
2866 47 2 0 44.564000068994076 39.757782514403374 107.61993105824568 0 -1 0
1538 34 7 -1 31.654462337583457 39.784096282342595 116.11651383563733 0 0 0
4302 47 2 0 18.451054402627104 48.17408644870059 98.46657861691928 0 -1 0
929 34 2 0 8.97733496007075 42.04510108071362 110.87979039948587 0 0 0
928 34 5 1 8.532190663927278 44.23635862182447 107.40405796379805 0 0 0
943 34 17 0 8.356983844798616 42.08512999773833 114.36259212955314 0 0 0
3175 47 12 0 24.220355381188284 41.20939571226277 109.43187352800972 0 -1 0
4300 47 9 0 23.9800250556924 43.62248584559644 97.79183882428792 0 -1 0
925 34 7 -1 7.98937290055453 47.184043434595615 104.92692290749083 0 0 0
789 34 7 -1 9.780440839590264 46.00329087073598 101.42327219715429 0 0 0
777 34 5 1 9.266502007430901 44.66721135666014 97.73123040292552 0 0 0
5358 47 14 0 17.996200479034737 42.06521524410084 112.34655987068112 0 -1 0
5357 47 5 1 16.51542090244119 44.71102516519235 109.88256014470001 0 -1 0
3065 13 12 0 5.537150785428162 55.8782219792826 116.49325900497173 0 1 0
6482 37 9 0 16.787902894675444 49.08823046393709 116.45060214635402 0 0 0
5093 47 15 0 21.467566819547407 50.21001884665554 102.29657735160279 0 -1 0
5092 47 2 0 24.766996809503954 51.04517902104323 101.07737616271942 0 -1 0
5095 47 5 1 18.239143531933177 47.36929511648755 107.67321846414463 0 -1 0
5094 47 7 -1 18.55657793489455 49.01538838966439 104.26791240830875 0 -1 0
5576 37 2 0 2.5100907048740715 48.23622032575737 100.99353697879594 0 0 0
3064 13 17 0 2.14304639792366 57.08506894461361 116.13079492320645 0 1 0
6646 37 2 0 23.10340463175422 52.496346580506135 115.36983819934758 0 0 0
5472 37 5 1 1.446764492496046 44.69119722804968 101.35243708654481 0 0 0
5577 37 2 0 0.4561934790803437 50.95715783122513 102.49345307429142 0 0 0
5345 37 2 0 1.781532163384907 45.32865077295459 97.5170441042601 0 0 0
1182 43 2 0 33.46831424329633 58.87736863267283 97.7143593971777 2 -1 0
2865 47 2 0 42.000412580463106 41.25738646185868 109.94492155370365 0 -1 0
3174 47 17 0 25.979171333518636 43.09659515141699 106.56796321148404 0 -1 0
3173 47 17 0 29.12852563546293 41.73100475042446 105.28970432603364 0 -1 0
2995 47 9 0 47.16427588299802 41.21061505746146 100.50177114414242 0 -1 0
5091 47 9 0 27.14351843906984 51.16648855593289 98.42928818295064 0 -1 0
1183 43 7 -1 35.558810614311746 56.2199938759675 99.98908021319001 2 -1 0
2715 47 14 0 37.91877701460091 49.23598731827501 107.84377543173062 0 -1 0
2863 47 2 0 37.31692488990493 45.780284407580346 106.6831387301438 0 -1 0
2864 47 2 0 39.55505147927229 42.94342857458004 107.83833905850987 0 -1 0
2714 47 17 0 41.57097881739298 47.66249092882531 109.48544169176932 0 -1 0
2649 47 2 0 45.67627653006689 51.48599413386084 109.72381543776221 0 -1 0
1277 43 5 1 40.80340230211134 58.281017161573594 101.39841702348001 2 -1 0
1268 43 2 0 38.741083653488346 57.25626777485338 98.44564890756624 2 -1 0
2488 47 2 0 44.96486949321207 53.807260027549916 105.51292055284385 0 -1 0
2487 47 17 0 45.04935278011209 57.16761073635213 107.09399462378134 0 -1 0
1436 43 2 0 46.754332953169765 58.17469239810067 101.08985266155267 2 -1 0
2713 47 5 1 43.31714493470064 49.79708636240411 112.15964401870171 0 -1 0
2486 47 9 0 45.08894314987336 58.75824890252753 111.10750321838482 0 -1 0
2648 47 7 -1 49.098267855955896 50.81431988132653 109.4737116101498 0 -1 0
2292 47 5 1 41.62087180032438 60.18500705826252 112.24754763465364 0 -1 0
2489 47 14 0 43.966599228015994 50.38700718734439 104.0891991528855 0 -1 0
4940 29 7 -1 38.57410738128096 41.66795135230176 114.61287980099794 1 1 0
1539 34 17 0 30.555289038387794 43.23343198908692 115.0655692080159 0 0 0
2490 47 2 0 46.09288752753012 47.727725435803215 105.86299607274702 0 -1 0
6130 29 2 0 45.78645098377723 49.709477108139346 97.55549993874008 1 1 0
2501 47 17 0 48.505384854614015 47.07656103225649 108.73077078438546 0 -1 0
6129 29 5 1 48.95273201732944 51.126567914506374 99.41936391199799 1 1 0
2867 47 15 0 45.63707976845329 41.5877685542403 104.17704100322501 0 -1 0
1991 47 2 0 26.890499865992677 59.81384035366407 113.36391687574717 0 -1 0
2117 47 7 -1 30.003993151564444 58.55305135666751 111.36539670639574 0 -1 0
4722 47 7 -1 7.928131365736002 5.720770774710413 135.92237628972512 0 0 0
917 29 7 -1 18.272586335329454 16.469225244086424 120.83182162598945 1 2 0
5328 22 14 0 21.974863669515496 1.3208771162363997 121.00849721599718 -1 1 1
916 29 15 0 21.510227613845444 14.409773569679222 119.22569340645269 1 2 0
1212 28 2 0 4.327455408105383 19.69821050311767 117.53381247092834 0 1 1
1024 29 5 1 14.961066851213054 16.918175361633594 118.69184152106361 1 2 0
1215 29 14 0 8.171155886147922 15.166905904209699 120.40754823885766 1 2 0
1214 29 5 1 11.244031583702931 17.230374327573266 119.79683696166931 1 2 0
2232 34 2 0 16.196557900696824 18.303476049732396 130.65694687886517 0 0 0
2400 34 2 0 12.69658514082606 18.30859946537501 131.9335517800858 0 0 0
5329 22 2 0 22.70852696772204 4.066770929697771 118.26103478310753 -1 1 1
259 13 6 0 21.670552108058644 11.630085161324628 134.4977876543961 0 2 0
258 13 1 0 23.297312581221703 11.280210840863694 131.21187050528562 0 2 0
4405 47 6 0 5.976969270694002 5.768371333812289 128.17271591677738 0 0 0
4404 47 1 0 4.50956622996303 5.449940989085975 124.72820718534048 0 0 0
4406 47 15 0 5.104295328288675 7.223568782007932 131.74058385885934 0 0 0
7033 34 2 0 5.976139125269413 12.918875490257799 136.16589909254645 0 0 0
4755 47 12 0 16.073612249465096 2.1093430704627614 134.7988277018696 0 0 0
4736 47 15 0 13.135892485815884 2.7386586293740014 132.28740926060922 0 0 0
7087 34 2 0 2.2839717157681627 15.049223556334468 134.46469444688768 0 0 0
4735 47 15 0 10.461583597188977 5.245875228110792 133.42749426703125 0 0 0
7086 34 2 0 4.731147797271693 12.462053626716353 132.5665846908939 0 0 0
4407 47 6 0 4.679439114217143 3.880603870598971 134.31958342047417 0 0 0
5561 22 2 0 26.790154541580964 10.948400628803487 117.82892289606447 -1 1 1
5562 22 14 0 27.744462078735484 11.058375966742021 121.84627525703736 -1 1 1
5630 22 2 0 28.537467612017995 16.525437927436517 120.13511675870916 -1 1 1
5566 22 2 0 26.230578327091678 14.319006767391427 122.28712036371898 -1 1 1
5953 22 17 0 32.68385833577359 16.77473887389823 127.78137038688425 -1 1 1
5952 22 2 0 30.183763474535755 19.645071237024627 127.49543914790614 -1 1 1
5954 22 14 0 36.250990189976335 16.337982642029388 126.37137569496251 -1 1 1
6063 22 7 -1 42.06345427229989 16.950960659380033 130.03619797521924 -1 1 1
6062 22 15 0 39.116173543200254 15.143906465972997 128.72267120734261 -1 1 1
5779 22 17 0 32.09163414248888 16.40224090154561 118.06590518313538 -1 1 1
5781 22 17 0 38.479408555239104 20.157850212092796 120.11431569455436 -1 1 1
5780 22 7 -1 34.98760967457375 17.85304757833418 120.05717821159378 -1 1 1
6370 11 5 1 46.648458297618504 10.591616300807406 131.02059022214715 0 1 0
6371 11 9 0 44.90566254882722 9.42359392642197 133.83854718290115 0 1 0
6394 11 2 0 46.80864318745062 6.37573966612006 134.82232539069975 0 1 0
1412 11 14 0 44.48909953996907 0.2635380697867005 136.19613747172602 0 1 0
6538 11 2 0 49.2017132294663 4.7421862095093745 132.12286706554065 0 1 0
525 28 15 0 0.06589815158956894 34.19956262903681 119.34022883756671 0 1 1
1031 28 7 -1 12.967783327387993 34.77973835036411 118.17403588363055 0 1 1
1211 28 14 0 4.494263244768491 21.94368661891857 120.44303608252176 0 1 1
2229 34 2 0 23.862894347071812 24.57419373278317 133.12418881856516 0 0 0
2230 34 5 1 22.054910212019823 21.498531718952687 133.49960618064705 0 0 0
2231 34 9 0 19.279385530815663 20.7901445848186 130.99339818211186 0 0 0
1037 28 17 0 5.902635502600079 25.619802612434217 120.74071614071445 0 1 1
1033 28 5 1 12.361196761817158 28.58853794255121 121.71080073033802 0 1 1
1032 28 7 -1 10.748970287997514 31.37412503739635 119.18027663609652 0 1 1
1173 34 2 0 17.591146268985163 38.77423344229831 121.08257858181005 0 0 0
1264 34 5 1 20.939343122714497 37.89102111630235 122.51353948234 0 0 0
1034 28 2 0 9.72475415896933 25.695339175861132 121.33904295115441 0 1 1
6532 34 2 0 13.301425808405684 22.62345906290188 132.0439586038375 0 0 0
2401 34 7 -1 10.125087837873643 20.72633938961036 131.66566309695583 0 0 0
1383 34 2 0 22.172546472165447 34.38798595800813 121.68935652113359 0 0 0
1384 34 2 0 23.132459754643914 30.904448271333486 122.26618747623654 0 0 0
6533 34 7 -1 13.219561096674845 25.189264610376746 134.5826482368131 0 0 0
4549 57 9 0 7.077624706309703 35.24875293267402 131.57917479544668 1 -1 0
4550 57 2 0 5.852514130838013 33.45921355169962 128.42989472199554 1 -1 0
4547 57 2 0 14.074373868095694 38.095527898490005 132.11546576717785 1 -1 0
6258 28 15 0 0.565776680882041 39.67869332861737 131.00338390845732 0 1 1
6141 37 14 0 5.712769881545556 38.61864788079416 124.72991048597343 0 0 0
6259 28 5 1 0.6852542968777541 39.57362622059502 134.6787629533193 0 1 1
4551 57 2 0 5.868421359304128 29.764916285105357 127.53057609603856 1 -1 0
4903 57 15 0 4.06781804075347 22.820472511034637 128.08021380797163 1 -1 0
4902 57 15 0 5.43095065329614 26.061020222602824 127.7007885918398 1 -1 0
4904 57 15 0 1.1205400704469355 21.47453280650525 125.81745336397186 1 -1 0
4548 57 2 0 10.24831718389638 37.101592351770805 132.54253521892153 1 -1 0
8500 57 12 0 14.060599694851758 39.70492237212081 128.69177515878567 1 -1 0
6268 37 2 0 4.537825320994286 40.36842649226301 127.82158918155992 0 0 0
6257 28 2 0 1.425416264648499 36.119455951401555 130.81100730864983 0 1 1
5267 57 9 0 1.833253379395326 30.032321798844343 135.0649580777442 1 -1 0
5268 57 2 0 5.223103140670048 28.734793094462823 136.2323433405709 1 -1 0
4910 57 15 0 0.07601534779298354 26.96603172354077 133.68061802176217 1 -1 0
5269 57 15 0 7.462233637421122 31.804460892839653 136.18105759389695 1 -1 0
6255 28 14 0 0.40365611710295274 31.782719303556878 126.75651077616678 0 1 1
2228 34 7 -1 26.048121788164757 23.662491106385627 130.1622800769077 0 0 0
5951 22 2 0 30.395005963143205 22.09593792566331 124.61941634366542 -1 1 1
2071 34 2 0 28.789975439502204 25.90452170508211 132.36484675932735 0 0 0
2069 34 15 0 26.648214680689204 32.05893909063037 134.0192490437018 0 0 0
2068 34 2 0 26.53902274613538 35.8288132466607 134.01675530126002 0 0 0
1385 34 2 0 25.012780450345364 32.50650516357349 125.39804600415722 0 0 0
2067 34 2 0 28.3795795290779 35.738391386938375 130.50200096457516 0 0 0
1386 34 14 0 28.151045764635423 33.3291344182945 123.04139435745128 0 0 0
5950 22 5 1 31.341984500740242 24.176827100079585 121.3061707476627 -1 1 1
1918 34 14 0 26.680804840355524 38.33419607383933 128.6890052171863 0 0 0
1917 34 2 0 29.511586057035014 40.34299321781912 127.26970932448654 0 0 0
2070 34 5 1 29.781554665767185 29.341544725016522 133.79516781701074 0 0 0
5795 22 2 0 35.014890711285034 24.451567658833728 122.59891079336386 -1 1 1
5782 22 14 0 38.660655652739365 23.549546841674914 122.01711866461757 -1 1 1
1387 34 2 0 31.58095864245498 33.719179868774894 123.67517314983864 0 0 0
1219 37 14 0 38.637076872264615 31.4075732503291 117.89565949825678 0 0 0
1040 37 5 1 38.14068544919031 34.281938962497414 124.92073016166692 0 0 0
1216 37 5 1 37.94596242288934 32.462739343038336 121.42549335928054 0 0 0
1389 34 2 0 33.54543031094799 36.7736064350364 122.1449751271105 0 0 0
940 37 9 0 38.953254702523395 24.280260097695013 129.53685754700868 0 0 0
942 37 7 -1 37.25673710978007 31.56139109057483 127.48260935560022 0 0 0
1537 34 17 0 31.422097211010673 38.21803969844941 119.77192649947787 0 0 0
1039 37 15 0 34.84112601518157 28.929599202895044 126.9894459524675 0 0 0
941 37 2 0 37.031629880192284 26.191678640078912 126.68045844699493 0 0 0
4941 29 7 -1 38.68280365844621 38.81107811058707 117.34609189184619 1 1 0
6903 11 14 0 49.3095486292884 32.84448644669074 131.0311526848039 0 1 0
556 37 15 0 38.13291941471335 22.601439210548595 132.91158027789143 0 0 0
4942 29 5 1 40.17085439496326 39.17669899044891 120.96512975988755 1 1 0
7060 11 2 0 46.828191242113114 32.281208743471396 133.81041730392823 0 1 0
6169 22 5 1 44.160568465898805 20.34432167319809 129.7118539226656 -1 1 1
6170 22 2 0 46.887652975952236 21.120961626206764 132.18362164081512 -1 1 1
6171 22 2 0 45.24265365763596 21.609681645686994 135.62602541690146 -1 1 1
7057 10 2 0 44.90073703828817 38.05943975964525 129.96127974707068 1 0 1
7058 10 2 0 47.54825594736095 39.04739098195411 127.36978496881126 1 0 1
1170 34 14 0 8.824497322676276 43.08535213401405 117.9568767202678 0 0 0
6139 37 2 0 4.94658855250151 41.36621306029514 122.06124148858429 0 0 0
6138 37 2 0 2.991698486119619 44.510779555172434 120.76392724296569 0 0 0
6483 37 2 0 20.132026435387683 50.94046073709532 116.90894291089009 0 0 0
6480 37 2 0 10.996262142777335 49.88063024091953 118.69818261019651 0 0 0
6481 37 5 1 13.624607023966638 51.65907485633479 117.08131333363653 0 0 0
3228 13 15 0 6.9386800288896335 57.38094846679928 123.85025542685611 0 1 0
3066 13 15 0 6.585723399082603 56.57981456530945 120.20259299163595 0 1 0
6647 37 7 -1 24.85264608199746 54.69282014218846 117.37522173704264 0 0 0
1172 34 7 -1 14.66430871333537 41.16421785146063 121.44138125978641 0 0 0
1171 34 2 0 12.709939980178564 42.12979171781226 118.15339964137881 0 0 0
6263 28 2 0 3.0022646763224152 42.94593699960036 134.4536308823315 0 1 1
6329 37 15 0 4.985456445183811 45.251988154417724 126.95262796587839 0 0 0
6330 37 5 1 8.436961817652575 44.50121905199129 127.803152422709 0 0 0
8499 57 17 0 16.682166546207558 42.37944836045137 129.1223478131854 1 -1 0
6335 37 2 0 9.755896621393868 45.08108071502102 124.00648817057197 0 0 0
6479 37 7 -1 9.167969497521993 48.53948283703757 121.87426395257495 0 0 0
6328 37 2 0 1.998871139145584 43.43469641648468 128.00971312291307 0 0 0
8498 57 5 1 17.905379661495395 45.50143583838066 131.121539692056 1 -1 0
8497 57 18 0 19.51705449714901 48.840072074689886 130.10024291998795 1 -1 0
8293 57 6 0 19.911886035142672 54.04996274807163 125.11261092900818 1 -1 0
8455 57 3 1 20.057475052355663 50.738033514251406 126.71211274439946 1 -1 0
8292 57 14 0 22.048558398584685 56.93944925201237 123.46935132409469 1 -1 0
6408 28 2 0 3.061769856324068 49.73330791416138 134.05514070191063 0 1 1
3229 13 17 0 10.429139940595194 57.32437114854631 124.71703416252403 0 1 0
6409 28 5 1 2.488859684430738 53.551145837202746 133.67209128187517 0 1 1
3230 13 14 0 10.780215709993765 55.28461796861622 128.09195809772982 0 1 0
3231 13 7 -1 11.303746056396824 55.484181319561316 131.7252674338289 0 1 0
3232 13 18 0 11.375641988323041 55.0589735530438 135.39740777773957 0 1 0
7144 29 2 0 19.88192213995563 56.94016852761788 130.47384560392956 1 1 0
3015 13 2 0 0.40118031031325246 57.68329269669464 123.90390884793374 0 1 0
6137 37 5 1 3.7126738929625667 48.33809601466373 121.63110734480367 0 0 0
7143 29 2 0 22.916848898154733 58.69756680456306 130.02799182671248 1 1 0
7817 57 3 1 22.71070122940305 56.62498336694579 135.28634626672837 1 -1 0
6407 28 7 -1 4.652933675266715 46.22045141726605 133.42245061353796 0 1 1
7145 29 2 0 16.733518078760838 58.93405982525874 131.1032821929508 1 1 0
6043 37 7 -1 1.9082807457015023 48.69935818405789 118.78749734060958 0 0 0
6648 37 2 0 28.53905909828365 56.00646055226077 117.78257186585618 0 0 0
6650 37 5 1 35.83382472911551 55.81175418743747 118.32708714187284 0 0 0
6649 37 7 -1 32.12665426250465 55.225078611203266 117.22379685546602 0 0 0
6816 37 9 0 37.991911240593524 52.80483213448708 117.16423418794787 0 0 0
6818 37 2 0 41.2081933849739 46.41680785442336 117.9260811592915 0 0 0
6817 37 17 0 38.344624954599226 49.382790603766615 118.59964363879216 0 0 0
6819 37 14 0 44.382300578406884 44.40199697959681 117.28725301222151 0 0 0
1540 34 14 0 32.64968220554808 45.63943537734458 116.84088231426624 0 0 0
6820 37 2 0 47.97945684014312 46.083211003427195 117.61135167192955 0 0 0
8289 57 2 0 32.62094072805952 57.85920135926041 124.52451632191512 1 -1 0
1892 34 2 0 32.408993256793366 42.11102459575022 127.92229819342052 0 0 0
1891 34 5 1 34.47954656598727 40.92970809390834 131.01003187597465 0 0 0
8149 57 2 0 35.34040702472125 57.54673627956881 127.32916169816392 1 -1 0
8291 57 9 0 25.584691151048414 56.519832450045 125.48174098430275 1 -1 0
8144 57 7 -1 36.82740362080768 57.54784141926024 133.55129731711034 1 -1 0
5572 29 2 0 45.02868919955371 53.00549540892285 133.40422088013665 1 1 0
5564 29 2 0 49.906661073361335 54.27491299888389 135.85018291578274 1 1 0
1803 34 7 -1 33.300712690475116 44.693607024024764 132.91465700472918 0 0 0
8290 57 12 0 28.93361380616747 56.97283033258993 123.35681654266882 1 -1 0
5563 29 14 0 47.53653543020347 51.39652557472307 135.61631753698578 1 1 0
5333 29 2 0 42.04902031234731 45.844632717829874 130.60884069526992 1 1 0
4947 29 2 0 40.44540887157415 43.034905810877774 121.25939518868043 1 1 0
4948 29 17 0 41.65743901882699 44.14594484441933 124.68920678534015 1 1 0
1542 34 2 0 32.68384403594771 45.27698148584312 120.55963470937397 0 0 0
1697 34 14 0 27.830626186037644 48.37357412409141 131.99020844570163 0 0 0
1696 34 17 0 27.4476918493819 50.462988794154526 128.91278121101098 0 0 0
1694 34 2 0 31.544692302642904 49.094809915373105 124.88421553688391 0 0 0
1693 34 5 1 30.51358888750034 45.55584990806169 123.71443192162 0 0 0
1695 34 2 0 28.150314292965444 51.11998650626714 125.12782339057475 0 0 0
5332 29 14 0 41.18332773015473 42.68859922067258 128.10212187537465 1 1 0
4767 63 15 0 39.30834356228112 46.365557213407236 135.098076231852 0 1 0
4759 63 7 -1 38.450690342377904 50.011835566042635 133.87426535386132 0 1 0
1802 34 15 0 31.083176975506618 47.23196668470821 131.96471134829196 0 0 0
4435 63 6 0 39.938760392465774 53.126355416043666 134.88992948531535 0 1 0
5334 29 7 -1 45.37333474429953 47.51849936115035 130.6530004001349 1 1 0
5570 29 2 0 43.10109200115546 54.47272079774171 128.70674222672338 1 1 0
5469 29 2 0 44.04586599208898 50.00113502834911 127.89320838369856 1 1 0
5470 29 5 1 45.35433465948092 52.80012085445433 126.47995996136257 1 1 0
5571 29 2 0 43.95901944202971 56.28792830662361 131.6003717956822 1 1 0
2289 47 7 -1 40.38525806332533 59.308123680648 122.06977184859521 0 -1 0
7024 10 2 0 48.39878635279521 41.22882359969 131.65857032069104 1 0 1
6822 37 17 0 49.84839200378959 45.935523891014306 121.0220756526019 0 0 0
2288 47 2 0 37.44986422396195 60.477591566094354 120.62866956854961 0 -1 0
7056 10 2 0 44.68340767664259 41.249652460897444 132.30624939671262 1 0 1
8145 57 5 1 34.5973783675535 56.1662082598449 130.57351639319 1 -1 0
2290 47 2 0 41.42413128213669 59.63213538991791 118.51196311711122 0 -1 0
976 52 5 1 0.9667446025581347 8.449201175450582 148.50717593810202 1 2 0
3349 63 14 0 0.4790784948115227 1.496824508898957 152.89491435235794 1 1 0
4565 13 5 1 11.162927117940454 1.563708520154334 140.73244576342452 0 2 0
1418 3 2 0 11.21971003494756 2.2018770379547807 149.8835930734834 0 0 0
6873 34 17 0 7.853087366987295 18.911781698322116 139.8519251561022 0 0 0
4558 13 7 -1 14.838472754969862 15.073743879005573 140.30083059734102 0 2 0
4262 13 6 0 15.276526385672526 13.951250603625653 136.48927925270843 0 2 0
260 13 15 0 18.148004291329276 11.112405170564696 136.56155947363888 0 2 0
6874 34 14 0 6.883788871248016 15.759773595784807 138.30583052621213 0 0 0
1259 3 2 0 18.10039271850971 3.148663400891692 150.4903639037329 0 0 0
1194 52 14 0 5.640274433496816 11.745789049166536 144.4138401075854 1 2 0
1254 3 5 1 15.713640304277025 5.295502540351229 152.24448291810003 0 0 0
1141 3 2 0 15.406268973323993 8.960517908446242 150.5806513811189 0 0 0
1140 3 7 -1 12.938204543445211 9.106086855328995 147.57152541260118 0 0 0
871 13 9 0 10.68097502471937 13.36201544296897 152.37210981552656 0 1 0
1150 3 2 0 15.882343625958056 7.399741980869879 145.33603580963097 0 0 0
1139 3 14 0 19.794881973100185 7.515614689481098 145.30135506300348 0 0 0
985 52 5 1 4.60068474869836 9.490342833106801 147.6831911554687 1 2 0
877 3 17 0 22.433845348538018 4.971016255338295 145.0139458449729 0 0 0
4562 13 15 0 14.14557448927981 11.481715230759438 141.4055569102877 0 2 0
7141 28 15 0 3.069394253421847 17.171790485913057 146.51148860787066 0 1 1
7088 34 2 0 1.6721802602947373 17.445052054830683 137.29058887668643 0 0 0
1133 59 5 1 24.68977336882728 19.13464653598766 141.89560123558627 -1 1 0
873 13 15 0 3.601241756065322 13.506554136593891 153.08079662571305 0 1 0
881 3 7 -1 24.016641931183248 10.869098918670915 142.59873869860726 0 0 0
874 13 7 -1 3.5808991619204438 10.587237711153437 155.0712486466423 0 1 0
880 3 7 -1 21.189198023466663 13.407543320086274 142.6517369473617 0 0 0
853 3 5 1 18.63547216409616 15.102168192038786 144.84810125505953 0 0 0
4563 13 15 0 13.752544316894445 7.653052579105849 140.03068954625758 0 2 0
7139 28 2 0 7.138581672421166 19.40950613416817 149.94849871022146 0 1 1
6699 34 17 0 18.07561643988481 20.075654932447623 138.3449414724875 0 0 0
7140 28 2 0 3.9453102581683903 17.42861476359691 150.1161187272629 0 1 1
1575 3 17 0 9.760684897292379 4.98863368603451 151.2243376940476 0 0 0
842 59 5 1 23.906066297033153 18.212615883034886 145.7826745931679 -1 1 0
1414 3 2 0 18.788118742047526 1.3421051337708085 147.05802783296122 0 0 0
4564 13 12 0 10.706108957907722 5.306135681779762 141.09996186133543 0 2 0
472 3 7 -1 18.38111671300115 15.175615037890207 148.5574713331213 0 0 0
471 3 5 1 19.860787719089878 13.487504972339211 151.4568651551478 0 0 0
492 13 15 0 16.313135618990163 18.779483548875444 153.9685807941035 0 1 0
502 13 15 0 12.492946604577975 14.63660944387275 155.31823158952852 0 1 0
470 3 12 0 19.895381738136845 11.2434735479803 154.18521646124546 0 0 0
872 13 2 0 7.275709179750255 14.26099962973482 152.8442573171745 0 1 0
1576 3 7 -1 7.5942674759709545 3.170643282832362 154.08948176197177 0 0 0
209 37 12 0 45.07921767199921 3.014753617071437 148.20204278870204 0 0 0
4197 37 17 0 43.42415178883857 3.4828777699482423 151.63866499565617 0 0 0