LAMMPS data file via write_data, version 29 Oct 2020, timestep = 50000

8640 atoms
40 atom types
8576 bonds
1 bond types

443.5667548504 556.4332451496 xlo xhi
443.5667548504 556.4332451496 ylo yhi
300.0 1100.0 zlo zhi

Masses

1 131.2
2 57.05
3 128.2
4 101.1
5 156.2
6 71.08
7 115.1
8 129.1
9 163.2
10 99.06999999999999
11 113.2
12 128.1
13 186.2
14 147.2
15 87.08
16 137.1
17 114.1
18 97.12
19 103.1
20 113.2
21 131.2
22 57.05
23 128.2
24 101.1
25 156.2
26 71.08
27 115.1
28 129.1
29 163.2
30 99.06999999999999
31 113.2
32 128.1
33 186.2
34 147.2
35 87.08
36 137.1
37 114.1
38 97.12
39 103.1
40 113.2

Bond Coeffs # harmonic

1 9.6 3.81

Atoms # full

4213 33 14 0.0 458.93040663100305 457.5699815294131 700.2105596245251 -2 -6 -1
4214 33 2 0.0 456.35488971573176 459.36932082621826 702.7115203351494 -2 -6 -1
4212 33 2 0.0 462.4221360029019 456.4111006718059 701.4879406661688 -2 -6 -1
4158 33 7 -0.75 453.73016234543337 453.4714178462458 702.1247118687302 -2 -6 -1
4211 33 17 0.0 462.22996220760473 452.49462274976617 701.9662552084271 -2 -6 -1
2130 66 7 -0.75 497.4743054136264 453.1464421705755 700.2739938079309 -2 1 -1
4157 33 2 0.0 453.23379083407445 450.8573062088327 704.6706833441825 -2 -6 -1
4206 33 17 0.0 453.96474830565666 456.847945848278 704.2860125213256 -2 -6 -1
4385 33 3 0.75 454.5098439366866 447.1952475730571 705.9583971974845 -2 -6 -1
4086 33 7 -0.75 466.99280683233343 444.88743242681824 707.0125169584314 -2 -6 -1
4101 33 2 0.0 452.27766950819586 446.5884158067046 715.334249250824 -2 -6 -1
4210 33 9 0.0 462.867532161595 449.036953982055 702.7918412790573 -2 -6 -1
346 33 15 0.0 454.65824678737374 449.4971875858488 714.3834489642115 -2 -6 -1
4244 33 3 0.75 464.0940047260011 446.8210009688621 705.7276531785474 -2 -6 -1
5521 66 2 0.0 464.87374260909746 467.90373621301194 720.2857850642054 -2 1 -1
165 33 9 0.0 457.7997383438544 448.05310468834455 712.7592166985766 -2 -6 -1
164 33 17 0.0 461.52346368503504 448.3302549388241 711.9368755888664 -2 -6 -1
323 33 2 0.0 463.405737861998 447.31234794398296 721.2105012482717 -2 -6 -1
331 33 7 -0.75 463.28949038572296 449.9378551201841 714.7791817022871 -2 -6 -1
332 33 14 0.0 465.04202650001076 448.76559625964086 718.0539716016626 -2 -6 -1
6769 66 14 0.0 463.4339352208221 459.13307958272986 718.7433737249854 -2 1 -1
6757 66 2 0.0 461.5941306884219 460.37207124095744 721.9404884610324 -2 1 -1
6698 66 2 0.0 461.61478718756854 464.783902258608 718.1555331674182 -2 1 -1
6687 66 2 0.0 459.630632632069 463.5352799698378 721.1502922265855 -2 1 -1
5529 66 5 0.75 464.06748056391325 467.5275354337705 716.6962486297796 -2 1 -1
6770 66 2 0.0 466.6982147669018 458.4950363752673 719.6745801752236 -2 1 -1
4241 33 17 0.0 454.10664647941684 444.9432018877921 708.6066010141504 -2 -6 -1
324 33 9 0.0 457.17903571832073 450.46920543400694 720.4998672388203 -2 -6 -1
6344 66 2 0.0 468.3778816529584 459.1607719386125 716.3053094483946 -2 1 -1
5522 66 7 -0.75 467.69807190616314 466.2403100256447 722.0286921847685 -2 1 -1
5526 66 2 0.0 470.4069156140222 468.5610149530127 720.4798489984903 -2 1 -1
322 33 17 0.0 454.713376269903 447.93693390566455 721.8956165930409 -2 -6 -1
2121 66 7 -0.75 492.64403656004384 467.4377955816988 704.7575855974343 -2 1 -1
2118 66 3 0.75 494.7995983969674 464.9184406104094 706.9983543015209 -2 1 -1
2120 66 2 0.0 493.5164401553863 470.67178402981926 703.0344274092911 -2 1 -1
6336 66 17 0.0 472.6952921758963 465.3656469288599 712.4231171314773 -2 1 -1
6330 66 17 0.0 471.0696801281504 458.5730719259632 713.7188158986186 -2 1 -1
6335 66 7 -0.75 472.56852227158026 461.4855918904258 711.7559353215996 -2 1 -1
6979 66 14 0.0 472.52177361198875 468.54939765085436 714.5008108284037 -2 1 -1
6780 66 2 0.0 494.31107049819855 445.09541243180894 720.3982853000954 -2 1 -1
6720 66 14 0.0 480.7342638599799 469.2339891884047 712.2760631800148 -2 1 -1
6726 66 17 0.0 477.579604350034 469.800002522321 710.33051012041 -2 1 -1
6723 66 2 0.0 497.42875144671694 446.0469351341705 717.9318143889869 -2 1 -1
5519 66 15 0.0 488.00916426642226 471.998405885727 715.6489997139391 -2 1 -1
6978 66 2 0.0 470.93168697105205 471.56651053736346 713.4879036068962 -2 1 -1
2125 66 7 -0.75 496.9501344908159 471.65140865119577 704.7657232287357 -2 1 -1
5555 66 14 0.0 472.11314478903125 471.6488881320338 721.7586181569422 -2 1 -1
2098 66 9 0.0 497.3806215805538 462.83929244033385 704.9450221706604 -2 1 -1
2131 66 3 0.75 497.66269741001634 453.8387237591216 707.3517239717866 -2 1 -1
5518 66 6 0.0 486.9812283560833 470.2540576497282 718.992530903348 -2 1 -1
325 33 17 0.0 460.3862798807504 449.298271095532 722.2617456549855 -2 -6 -1
76 165 7 -0.75 467.9407627509548 469.77371713781133 735.1270249113625 2 0 0
75 165 7 -0.75 470.0965397520995 468.5112807605162 737.8745223744174 2 0 0
5055 168 14 0.0 448.65867234817654 445.21345852273765 736.7306588943102 0 -1 0
5060 168 2 0.0 446.69633564528675 447.67892507949233 734.5683949923614 0 -1 0
5453 150 15 0.0 451.08466628727257 465.5492291227589 735.021879041638 3 -2 0
5454 150 15 0.0 453.5059060080305 465.527901240784 732.2641474712547 3 -2 0
5455 150 7 -0.75 456.57007497154757 469.57172402420207 728.7139758637547 3 -2 0
5457 150 5 0.75 453.81638497072726 466.76854422097495 728.6768672816304 3 -2 0
5459 150 2 0.0 450.41211002751356 466.5032965560517 738.7296265594291 3 -2 0
5076 168 2 0.0 451.8287114486329 445.59419080626327 738.586264921218 0 -1 0
113 165 5 0.75 469.02845640517916 471.227130745242 731.6475986389731 2 0 0
1476 150 18 0.0 450.55304251238357 469.0561780426514 741.5697021245463 3 -2 0
5456 150 3 0.75 458.560649186662 471.7161648228245 731.2708892344885 3 -2 0
484 33 15 0.0 448.41359871654925 444.0402394994816 726.5895841395914 -2 -6 -1
4880 168 2 0.0 444.71561756475637 448.6764858199178 731.8299971859703 0 -1 0
320 33 17 0.0 452.5422547376136 448.74345098489124 724.964682346984 -2 -6 -1
69 165 2 0.0 453.47322528450763 452.76030361246296 740.6990562005269 2 0 0
72 165 2 0.0 450.0513671313298 452.317496887435 738.6166607283164 2 0 0
114 165 7 -0.75 465.82547345936644 471.14570848744205 729.1121942080981 2 0 0
86 165 14 0.0 448.9475448669329 455.84799461995067 738.1183021534989 2 0 0
333 33 12 0.0 451.529554657577 445.84482620074243 727.1165383538624 -2 -6 -1
1472 150 14 0.0 461.0163063712435 472.0007159134766 734.6004405146114 3 -2 0
388 33 5 0.75 470.239237872837 445.03023207253574 739.1106179823183 -2 -6 -1
5517 66 7 -0.75 485.8557917792019 470.44353202131094 722.6406030922817 -2 1 -1
2142 66 15 0.0 491.05433359849235 444.58396027915785 722.3748951058809 -2 1 -1
74 165 3 0.75 472.5480160210291 465.64357113885285 738.4362467499127 2 0 0
5557 66 3 0.75 478.0176382688486 469.1303820728497 729.7073629253832 -2 1 -1
3467 114 7 -0.75 494.32589860035915 461.2604033942619 729.9081404167946 4 4 -2
403 33 7 -0.75 471.66556564847485 446.695499551599 736.0147677120495 -2 -6 -1
7872 114 17 0.0 487.33894313332 463.4478182612218 731.5269750760046 4 4 -2
3464 114 17 0.0 489.5573048097046 457.32901603296534 732.2220777174832 4 4 -2
3463 114 15 0.0 487.311390918776 456.3427499167236 735.2381345423706 4 4 -2
7833 114 2 0.0 487.96386369435857 463.009634738272 727.8477513654445 4 4 -2
3471 114 15 0.0 486.37391272390255 453.29641489352025 737.5664521221814 4 4 -2
7640 114 2 0.0 490.94788824335313 462.98196587245246 725.7119457606068 4 4 -2
396 33 15 0.0 478.8732143300827 448.09622072180605 738.3023987055927 -2 -6 -1
395 33 3 0.75 479.41944791113343 444.57020918912525 736.9485579949225 -2 -6 -1
397 33 9 0.0 476.432613152617 449.9189004895463 740.7834528298384 -2 -6 -1
3465 114 14 0.0 493.22850021611566 458.5641763307944 732.5258987900994 4 4 -2
402 33 2 0.0 473.8850472362851 452.3146339519653 739.0772524879503 -2 -6 -1
7651 114 14 0.0 484.14483084596714 463.8324715105438 733.3235850197952 4 4 -2
998 33 15 0.0 472.68883687100333 450.5614578640165 735.9459686179746 -2 -6 -1
3470 114 12 0.0 486.6017223432972 449.261784801286 737.7054793192417 4 4 -2
7649 114 3 0.75 484.2214721475885 461.5795940026672 736.6873178766845 4 4 -2
3372 114 17 0.0 484.59227327807656 447.58080723211646 740.8929333034142 4 4 -2
7870 114 7 -0.75 482.92962306086025 462.94810140634485 739.9674412452293 4 4 -2
5581 66 17 0.0 472.6904576595355 470.7522037446774 725.3661355085505 -2 1 -1
3466 114 3 0.75 494.2272934956398 461.96470287613135 724.1387210021901 4 4 -2
5556 66 2 0.0 476.2590484726606 468.98210811513064 726.0872455547658 -2 1 -1
123 165 2 0.0 471.8060626524554 462.97398976928895 740.9806018129046 2 0 0
391 33 15 0.0 481.70999295165944 444.15201909298656 733.8265809431838 -2 -6 -1
60 165 2 0.0 455.32859502139223 453.06388127382456 743.9861543178754 2 0 0
1475 150 9 0.0 450.22986701812346 470.31262876212503 745.2289696878693 3 -2 0
5088 168 2 0.0 446.2273203124136 467.14678526266334 760.4180107815563 0 -1 0
81 165 2 0.0 448.4773770984676 456.2650835246542 742.0087045994105 2 0 0
1075 18 14 0.0 445.5765321572242 463.7287896641576 753.5891023938825 -1 3 -2
126 165 14 0.0 468.3303507995317 461.0927093163747 747.8117107441587 2 0 0
68 165 2 0.0 464.6127758374826 461.05224458090277 749.0090679336996 2 0 0
1664 24 3 0.75 454.7966467741908 453.6261423633223 751.7711055743359 1 -2 -1
7645 171 7 -0.75 467.6257849371931 446.63980681242253 752.6103043190642 -2 4 0
1660 24 7 -0.75 459.453450786996 468.89511991318295 755.4783045594086 1 -2 -1
1642 24 6 0.0 452.58174487440994 456.2606546512349 750.9178042540117 1 -2 -1
1654 24 9 0.0 462.69274398762553 469.44464299706635 757.0879575723295 1 -2 -1
7646 171 9 0.0 465.03026811806535 447.19537026795234 749.7200739647647 -2 4 0
1649 24 3 0.75 457.01625615649596 468.5516046862576 752.5797453924995 1 -2 -1
7644 171 15 0.0 455.184525284554 446.02841113379634 751.6904793182799 -2 4 0
63 165 5 0.75 457.32768402227265 456.7016938198807 744.6833688575721 2 0 0
3658 165 7 -0.75 444.38457940641234 448.5381462965912 748.0679728021473 2 0 0
1650 24 9 0.0 451.1215006624366 461.6064521466648 749.4466546467063 1 -2 -1
7643 171 15 0.0 458.2436494310146 447.35748727676946 751.2385353034246 -2 4 0
1651 24 12 0.0 451.8153354348327 465.30687048908175 748.9251323269713 1 -2 -1
64 165 7 -0.75 461.2615612976177 461.3846330788966 747.3334029687824 2 0 0
67 165 2 0.0 457.65371076187 459.82358412577923 746.9795760861577 2 0 0
1643 24 14 0.0 450.8141901536719 458.2203712535484 748.1838410535338 1 -2 -1
1658 24 2 0.0 449.8763486475663 467.4677394216738 751.282137907908 1 -2 -1
1659 24 2 0.0 453.0443587456488 468.85574356775186 753.2003786647966 1 -2 -1
3618 165 2 0.0 448.6140388845942 453.1785633181235 744.0725326003536 2 0 0
1473 150 7 -0.75 446.92723553744526 468.96460795910286 746.7834201610304 3 -2 0
82 165 17 0.0 446.7001638651699 451.3408142300762 746.8399216509355 2 0 0
1630 24 5 0.75 451.31757956406716 453.6357273457205 757.9443199857732 1 -2 -1
1081 24 12 0.0 445.44027094631497 450.6226078274491 759.3898605407948 1 -2 -1
1627 24 17 0.0 447.93608625990555 453.79288105066263 759.7061185414482 1 -2 -1
1665 24 18 0.0 452.8707955375306 452.0188288968315 754.7346505060033 1 -2 -1
7648 171 2 0.0 460.14455224657326 450.33966880775216 750.9147977579354 -2 4 0
1056 24 15 0.0 464.9706903426375 448.24178928792765 758.4743256759275 1 -2 -1
7647 171 18 0.0 462.50449959658147 449.91635705294124 748.239057123687 -2 4 0
5842 24 7 -0.75 455.8128701690548 464.9697877026449 760.1655661236067 1 -2 -1
1068 24 7 -0.75 461.85476570354996 446.9057755566758 756.6798724108003 1 -2 -1
1057 24 2 0.0 451.86356316343745 443.78050976598854 759.5426596271313 1 -2 -1
417 33 14 0.0 470.5627150921651 449.9421006061711 744.2546660303658 -2 -6 -1
377 33 5 0.75 469.69888016242857 447.38511330291004 742.1801779187961 -2 -6 -1
6054 24 15 0.0 467.31349153081226 463.1636700028991 760.2200285304591 1 -2 -1
6066 24 12 0.0 469.859836177105 465.6102057540473 758.8919552388891 1 -2 -1
112 165 17 0.0 470.1153901956646 462.6781074566145 744.5600357787871 2 0 0
1655 24 18 0.0 464.5821473690427 471.57236010709374 759.3842200270319 1 -2 -1
1477 150 2 0.0 444.6888598296268 471.5385425532586 750.4868754376769 3 -2 0
7812 114 5 0.75 485.068424339622 465.3786944686918 742.1895844603586 4 4 -2
7641 114 12 0.0 482.4575009306282 444.1361567219539 753.4654777683407 4 4 -2
3459 114 17 0.0 487.23764682524023 448.73066134742106 743.7190395219853 4 4 -2
3750 114 17 0.0 495.55428886069757 462.3838321913095 751.027329888343 4 4 -2
3641 114 2 0.0 490.56799341232306 457.6401152565609 745.8347343440113 4 4 -2
3370 114 9 0.0 487.8258805333428 452.6100954467018 744.3576057041275 4 4 -2
8222 114 14 0.0 492.54850157779964 470.61829753613193 760.7745198011675 4 4 -2
3626 114 17 0.0 491.1213747364861 454.5813383886365 744.0608102197777 4 4 -2
3730 114 14 0.0 490.1997593892036 461.13979580290066 746.8295903060518 4 4 -2
3744 114 2 0.0 491.00358557196483 471.0949514490637 751.5723685928092 4 4 -2
7837 114 2 0.0 482.72216671307064 449.58741475364684 757.0506353939062 4 4 -2
7835 114 2 0.0 482.5244877601379 445.6322815552791 756.7556364984795 4 4 -2
3749 114 9 0.0 493.30982419111757 465.15070710777127 752.6933645462091 4 4 -2
8072 114 2 0.0 483.6384029816094 462.1825405404426 751.4422133281871 4 4 -2
8045 114 7 -0.75 483.98708779685603 452.60969461072915 750.973419929776 4 4 -2
8071 114 15 0.0 482.6492909161655 464.01579828375515 748.2426715789564 4 4 -2
8053 114 18 0.0 482.96321242421044 458.5421372420218 752.3473085685844 4 4 -2
8054 114 9 0.0 485.9368076015678 456.14793138062265 750.6847229957305 4 4 -2
4337 114 5 0.75 483.31876999626905 469.74084209290703 751.0933758072604 4 4 -2
8047 114 15 0.0 485.4962911840511 465.409632138 746.270518682629 4 4 -2
8049 114 3 0.75 481.86589218436126 450.3362949112405 753.1848194102008 4 4 -2
3748 114 15 0.0 490.3949422741556 467.3496317802896 752.4031337570657 4 4 -2
3321 3 6 0.0 475.2571599464894 448.21060759352866 749.759751939237 2 1 -1
4327 114 2 0.0 485.54827436062266 471.86135294480647 753.3455675059452 4 4 -2
3345 3 1 0.0 472.5944193848329 450.2734135295491 751.0878322279525 2 1 -1
8062 114 17 0.0 494.6334265317824 447.42495219778255 752.8961621428838 4 4 -2
3752 114 7 -0.75 494.2299127107385 461.1753064853412 747.8532037003226 4 4 -2
8080 114 2 0.0 495.719824965841 448.68847372643285 758.3754173007204 4 4 -2
8083 114 2 0.0 491.2906216434425 455.93404745572377 760.4306989704086 4 4 -2
8063 114 5 0.75 492.96502017921614 449.0280707868229 749.7719484348414 4 4 -2
7826 114 18 0.0 491.85731738333845 446.68129704426894 747.4142404651125 4 4 -2
8084 114 2 0.0 496.32028287299613 451.85681699838995 759.8413523102055 4 4 -2
8094 114 2 0.0 488.26598181608927 454.93970376013993 758.0026652314283 4 4 -2
8069 114 12 0.0 497.58426462524676 448.97708187733684 755.0911569362901 4 4 -2
3342 3 15 0.0 473.8257836592002 444.69423219705817 749.8358545137197 2 1 -1
2708 117 15 0.0 497.03985773334955 471.6784311732584 751.9429192625803 -3 -4 -1
8200 114 17 0.0 490.4258088558515 471.9784678248189 757.8439626377713 4 4 -2
7831 114 9 0.0 485.15224023046756 444.6056232263359 751.0827023114816 4 4 -2
4240 114 15 0.0 485.82399675973 455.78807518341904 760.7907181292476 4 4 -2
8202 114 2 0.0 486.3008042524141 471.6208054929397 757.223525954258 4 4 -2
4479 105 9 0.0 461.48334718272196 444.0925779717187 763.0355085026265 4 -2 -1
12908 295 5 0.75 458.7568386909279 443.95541417678913 779.5785158158146 4 -2 0
5092 168 15 0.0 445.6877630493421 462.34605428526777 767.9968030664865 0 -1 0
1080 24 2 0.0 445.3958536199257 447.44089442852146 761.5044100272879 1 -2 -1
1054 24 2 0.0 462.7628527130488 449.6744185299996 761.1652303272681 1 -2 -1
5841 24 18 0.0 452.35840988121953 465.29090262660156 761.3125700604037 1 -2 -1
5102 168 2 0.0 470.3813065080036 456.8396569966301 779.5947815764671 0 -1 0
13925 358 2 0.0 443.81293423897074 457.41215042180824 775.3658392501934 0 -1 1
760 168 2 0.0 459.44805562248604 463.5394813705764 780.2478436055011 0 -1 0
5109 168 2 0.0 446.17117808847786 466.0426668782382 768.84918286004 0 -1 0
5098 168 14 0.0 469.86636807549644 453.1348591995654 779.2301413364211 0 -1 0
1079 24 2 0.0 446.811163995723 444.31679763056644 761.1825621762723 1 -2 -1
1069 24 9 0.0 462.33612557033405 453.69288341149183 761.6310721366036 1 -2 -1
6039 24 14 0.0 458.38416236201886 466.75649404838356 762.3531409369695 1 -2 -1
6097 24 17 0.0 460.830992211924 464.25641362343157 764.126354666107 1 -2 -1
5090 168 2 0.0 447.64262792631484 469.6476737066173 762.328078912895 0 -1 0
5093 168 2 0.0 444.41052932891023 467.5850412631653 766.0903417829696 0 -1 0
6055 24 15 0.0 464.2733574042302 464.2684280219143 762.5760912549849 1 -2 -1
5108 168 2 0.0 443.89293375752453 460.4325671490536 763.3777682473124 0 -1 0
5119 168 17 0.0 450.2830348631759 464.2191496333444 779.143179590454 0 -1 0
13924 358 9 0.0 446.6908689565675 457.266641478832 773.4499101765749 0 -1 1
5269 168 3 0.75 448.53727647741596 455.58183864680683 770.4862787981363 0 -1 0
4262 105 3 0.75 467.93277974970243 450.14867671280246 772.9313337263699 4 -2 -1
13777 358 9 0.0 451.2655574598514 460.5216428814217 779.2826845840056 0 -1 1
5135 168 2 0.0 447.8757866190445 457.5558733132768 767.1408976624555 0 -1 0
5116 168 7 -0.75 459.6595421347289 456.8740158169224 779.1402707291087 0 -1 0
4264 105 2 0.0 457.7546971320194 449.12901828949106 773.9155877735354 4 -2 -1
1003 24 15 0.0 462.578627401944 452.77900774998454 765.3787240964361 1 -2 -1
943 24 3 0.75 463.65611300543503 450.24456194156306 768.1026454765735 1 -2 -1
5846 24 3 0.75 453.2618336118398 465.2708525511932 767.9039213397266 1 -2 -1
5811 24 1 0.0 451.2139899366768 466.44898413357373 764.7388661391858 1 -2 -1
1666 24 15 0.0 453.31671577156783 449.6088931705218 767.9926155479051 1 -2 -1
1072 24 15 0.0 451.4079839326004 447.14142205618094 765.8013045968836 1 -2 -1
1629 24 15 0.0 456.5991217159635 448.02622737838306 768.2219497613333 1 -2 -1
1055 24 2 0.0 451.49962494598157 446.5973295265288 761.9893031569472 1 -2 -1
1639 24 15 0.0 460.1996018125715 449.0723473427056 769.0862099883067 1 -2 -1
5110 168 17 0.0 457.80838873019684 460.1859903458782 779.210449056836 0 -1 0
4265 105 15 0.0 454.2184457712187 448.0980537644112 775.4019437920981 4 -2 -1
12899 295 9 0.0 461.3239298007789 449.2420585564299 775.2516201967226 4 -2 0
4258 105 15 0.0 464.74933139613086 450.2232302569987 774.9947045671886 4 -2 -1
5133 168 7 -0.75 446.99942510545054 458.3303957827869 763.474916601328 0 -1 0
5812 24 2 0.0 455.88031017882923 467.2504385060018 769.8658379178937 1 -2 -1
5097 168 2 0.0 459.6543741868181 452.88940579406034 779.06184398296 0 -1 0
4266 105 7 -0.75 454.65115348541605 444.5172232652101 774.818963123674 4 -2 -1
10087 271 15 0.0 467.8949580884255 467.614362189466 779.8687869544459 -3 1 0
6068 24 17 0.0 469.5151363760511 468.6922284256005 761.2915993519381 1 -2 -1
5009 168 14 0.0 445.5576842653381 471.2424723011631 765.3723145698273 0 -1 0
5752 24 2 0.0 456.3064544818001 470.6029751364309 767.8035176304254 1 -2 -1
10119 271 17 0.0 470.4518977670905 464.6251890151734 780.4732144401163 -3 1 0
6069 24 17 0.0 468.80704085246293 471.44802966183465 763.7367839153878 1 -2 -1
1656 24 2 0.0 463.60363412042426 471.9319736600937 763.1580396581992 1 -2 -1
5138 168 2 0.0 489.0373995559912 452.23023389829814 780.4096111881184 0 -1 0
5502 24 7 -0.75 477.0367117331386 468.401530115688 771.9429021440823 1 -2 -1
4943 168 2 0.0 495.4424817010619 470.90114452260593 772.0061666444011 0 -1 0
5499 24 17 0.0 478.01212383435364 472.1710706493138 772.800982042931 1 -2 -1
12901 295 15 0.0 472.61933637204953 445.0012247907962 774.2051320633459 4 -2 0
5126 168 17 0.0 497.2954232899255 450.3054524601747 776.0738891702313 0 -1 0
5124 168 7 -0.75 495.1424996127607 461.3727425003458 765.6448763978889 0 -1 0
5129 168 18 0.0 495.9767008264989 463.3262668180552 768.6409776536278 0 -1 0
5128 168 15 0.0 496.9897165529436 451.6445196182763 766.5667056205502 0 -1 0
5118 168 14 0.0 496.0066118855254 457.7854084166533 765.4344835515192 0 -1 0
5115 168 9 0.0 495.0501182117129 451.75960094145125 778.474097878597 0 -1 0
8082 114 9 0.0 492.7114217305915 452.78753881083827 761.2089858225548 4 4 -2
5123 168 17 0.0 491.33375955498946 450.39521184642183 777.9341988180931 0 -1 0
5501 24 14 0.0 473.9894525438909 467.1823007236125 773.4953888750899 1 -2 -1
4952 168 1 0.0 493.53379390496127 466.2583819075846 768.2980961851339 0 -1 0
4951 168 3 0.75 492.40158570072856 468.9817602557318 770.580907280554 0 -1 0
5136 168 12 0.0 494.7525610691283 449.5899782680999 768.9806550224299 0 -1 0
9403 358 2 0.0 476.49743519332293 459.7246163135387 780.3389356281675 0 -1 1
4246 114 15 0.0 484.4826001106586 453.6896656114587 763.9398775169601 4 4 -2
12900 295 15 0.0 470.9741134046121 448.19497323115473 773.9787888722356 4 -2 0
4192 114 3 0.75 487.84598075700336 444.731508466617 765.8252106325715 4 4 -2
5125 168 17 0.0 496.1695620766843 449.42411938250035 772.4624985904766 0 -1 0
9404 358 2 0.0 474.0263741044381 457.04515277302414 779.2902300260988 0 -1 1
6075 24 2 0.0 471.25955011505494 469.03915452900776 771.3512144117052 1 -2 -1
177 87 1 0.0 496.24369057293336 465.56079469821935 780.2195538283723 -4 0 -1
4204 114 15 0.0 486.9343757834085 448.2838528679448 765.8514870935559 4 4 -2
4181 114 15 0.0 485.5123962806578 450.20316427278726 763.106382862833 4 4 -2
674 165 15 0.0 450.53235746344546 475.61703569425015 719.028412724524 2 0 0
136 165 6 0.0 451.3048398131043 478.53693936822265 721.4004425206207 2 0 0
122 165 6 0.0 453.1916558970959 473.88805972284734 717.0399187387202 2 0 0
124 165 1 0.0 455.1634601167081 476.58745127649 715.1220247867597 2 0 0
8056 114 12 0.0 468.4665494043387 499.65701208170066 713.8915801726117 4 4 -2
125 165 7 -0.75 454.873234568527 477.60149615235065 721.071622643194 2 0 0
6701 66 5 0.75 472.1783488976118 475.0612182520573 713.2077811054468 -2 1 -1
6700 66 2 0.0 475.91564095303715 475.9786547577917 713.0780261304196 -2 1 -1
6666 66 15 0.0 488.5288345280849 488.80173017799297 712.3636642710886 -2 1 -1
6734 66 5 0.75 481.22407807745924 478.8003519940412 715.1488081802519 -2 1 -1
6737 66 7 -0.75 480.2845795497655 475.3334645702881 716.7838513736365 -2 1 -1
6729 66 2 0.0 484.54076098364675 480.1094179286801 715.8149803949028 -2 1 -1
6736 66 2 0.0 488.13335224147875 480.9946881769246 716.6173491279753 -2 1 -1
6735 66 14 0.0 490.7591426331207 483.3775738098482 715.7062693141427 -2 1 -1
8182 114 7 -0.75 478.71771087441664 491.87244711961756 714.3806847135272 4 4 -2
5516 66 1 0.0 488.44908097897667 476.7542965011737 711.2614073151818 -2 1 -1
6662 66 2 0.0 486.152774964768 487.6661258791084 707.3324431121571 -2 1 -1
5520 66 6 0.0 486.09109989653786 474.0137515037213 712.9595291054659 -2 1 -1
6665 66 7 -0.75 489.59600137345836 486.418930890615 706.6987762830454 -2 1 -1
6661 66 5 0.75 485.6493430931722 489.89761501068404 709.9199058839147 -2 1 -1
6678 66 2 0.0 491.07216111629816 483.8803550316496 704.3372204809048 -2 1 -1
6728 66 2 0.0 489.3254171579151 485.9770931117933 718.0928928899496 -2 1 -1
8184 114 3 0.75 472.7040566349575 490.1660005498336 718.1834813136351 4 4 -2
8183 114 7 -0.75 475.40668673687617 490.36490240081287 715.213502533218 4 4 -2
6717 66 2 0.0 488.2646029991084 488.77483570194175 716.1999582114537 -2 1 -1
6679 66 3 0.75 491.24162967026564 480.3412920834204 705.7283372959009 -2 1 -1
8185 114 2 0.0 473.5865281056537 493.6813657900539 719.3052113327822 4 4 -2
6682 66 9 0.0 492.94744520674396 476.96126768571645 705.0660557244538 -2 1 -1
6683 66 2 0.0 495.9655692128571 477.6212816778586 702.8405278738863 -2 1 -1
8179 114 5 0.75 478.3813268822299 495.9312491871667 714.6707759225598 4 4 -2
8173 114 7 -0.75 475.59658215833366 497.7832912901744 712.9903540903131 4 4 -2
8052 114 5 0.75 472.1567052431013 499.7998793509948 712.7598163753529 4 4 -2
6730 66 15 0.0 481.1906467831166 472.9132142280269 713.5167486417093 -2 1 -1
6773 66 2 0.0 476.6932722623747 473.4032652523973 710.0016948962352 -2 1 -1
1288 150 3 0.75 444.662610273753 477.93845414311176 741.1363767645593 3 -2 0
132 165 15 0.0 457.90410049239455 475.86161827161465 722.9917460130395 2 0 0
134 165 15 0.0 459.4322901312637 478.1023249430492 725.9665638283774 2 0 0
4594 102 17 0.0 448.5753104368352 497.0051152725208 735.5248364724638 -3 -3 -1
4618 102 9 0.0 446.3580887395127 498.25688413636544 738.5551264717872 -3 -3 -1
1413 150 9 0.0 453.42939835211206 491.135797897519 741.0972024523918 3 -2 0
5344 102 12 0.0 454.7781157816086 500.3379505020963 736.6363498895382 -3 -3 -1
116 165 5 0.75 464.0379809464001 472.7368099186303 726.1371707481751 2 0 0
133 165 12 0.0 462.5893217047007 476.1391943121503 727.3648214298348 2 0 0
5788 102 14 0.0 468.25126993813706 496.52397880344563 734.9372710399404 -3 -3 -1
5779 102 15 0.0 458.6448332560833 499.799344523227 735.6075337888454 -3 -3 -1
1482 150 17 0.0 461.8963434432094 474.66380812656485 737.1520443607188 3 -2 0
5789 102 15 0.0 461.78102549332505 498.7152856819998 733.8997975122445 -3 -3 -1
5305 102 17 0.0 452.4763315473522 497.5439813637457 735.7142098386282 -3 -3 -1
5791 102 17 0.0 464.67614053178465 496.49140957495206 733.5711119729319 -3 -3 -1
1483 150 2 0.0 460.61186391010415 475.95535295033767 740.9848022091545 3 -2 0
1414 150 17 0.0 451.3729450695997 494.6612343281397 741.1646547966803 3 -2 0
1416 150 2 0.0 447.56245671736843 486.71051259196923 740.3136852530769 3 -2 0
1415 150 2 0.0 450.8015302952018 485.5734034466906 741.088005083705 3 -2 0
5670 66 5 0.75 480.4277894490624 478.52159587406965 724.6060585646119 -2 1 -1
5632 66 7 -0.75 484.08786799338156 477.9632126049738 723.2190409100366 -2 1 -1
8199 114 17 0.0 474.0697518555871 494.20148179019384 722.9378659400268 4 4 -2
5507 66 12 0.0 490.7301263514373 478.4486330565015 725.3687615783551 -2 1 -1
5631 66 5 0.75 487.0279799346237 479.56686496623286 724.4495519628867 -2 1 -1
4282 114 7 -0.75 479.956610493011 491.38638459814035 730.6383634123032 4 4 -2
4294 114 2 0.0 479.0878982151987 494.00272862689314 727.9143432007703 4 4 -2
8165 114 2 0.0 477.4118779747316 488.43308320491474 730.2989335982053 4 4 -2
8192 114 17 0.0 474.10223516300607 475.96700181440974 738.8956636936998 4 4 -2
5714 66 7 -0.75 478.22172871803957 473.1178098037945 729.4481729221426 -2 1 -1
8197 114 2 0.0 472.81160134257885 473.5282967445413 736.2868355742072 4 4 -2
5671 66 7 -0.75 478.7858785341613 475.82731839244667 726.7389777858012 -2 1 -1
8190 114 5 0.75 474.09126260786013 487.7758114271817 728.2760799460038 4 4 -2
4253 114 14 0.0 477.6335342662163 493.59475904864877 724.6881758833756 4 4 -2
8193 114 2 0.0 476.5283788573678 486.31383891156656 725.6070673531704 4 4 -2
8189 114 2 0.0 476.42375473591466 482.5150210377349 725.8291334688843 4 4 -2
8194 114 2 0.0 474.43989289185964 479.8243533497313 727.4438455448695 4 4 -2
8196 114 14 0.0 473.11298231693587 477.446402385172 730.4563101309851 4 4 -2
8195 114 2 0.0 474.31717168033515 476.43815924677745 733.9595535782767 4 4 -2
5754 102 7 -0.75 470.7067525008988 497.15711734274845 731.7998507572677 -3 -3 -1
5781 102 18 0.0 473.013141275335 499.5364715492353 730.2761051799799 -3 -3 -1
5506 66 15 0.0 491.3739249696106 474.9554323506982 724.9101448798579 -2 1 -1
8162 114 7 -0.75 476.6177966596039 476.1766410712777 741.5247976108445 4 4 -2
5508 66 15 0.0 488.7206027600877 472.4845702134416 724.4542207377883 -2 1 -1
1418 150 2 0.0 445.3426450525418 487.2766856342959 743.699363993257 3 -2 0
1450 150 12 0.0 446.65755736243807 473.406114445953 757.6429257141222 3 -2 0
4614 102 17 0.0 444.75711424641014 497.79909834165727 741.903230031781 -3 -3 -1
1417 150 15 0.0 451.97051811722525 488.4400200918476 743.2413465371252 3 -2 0
1449 150 2 0.0 460.95998785477974 474.8427465056532 744.5446946347088 3 -2 0
5995 150 2 0.0 448.70354923587047 490.3849625314889 757.6568172232362 3 -2 0
1227 24 17 0.0 462.0149607352087 493.15182551584485 755.1898982907212 1 -2 -1
2036 150 5 0.75 446.35840419917895 481.323012580495 753.2983410404252 3 -2 0
5432 150 2 0.0 451.3931627210425 488.6179266871952 759.5206366950646 3 -2 0
1010 24 7 -0.75 462.3658888011639 496.1643709496781 752.6563560125369 1 -2 -1
1490 150 15 0.0 454.71209836981564 482.52398973683523 750.2787421196607 3 -2 0
1504 150 15 0.0 452.56059357192476 480.42895218078803 747.6441650097825 3 -2 0
1423 150 2 0.0 447.7975867887923 496.9195085554195 750.3522755859499 3 -2 0
1492 150 14 0.0 456.6485083317297 475.200295381265 750.3490454016725 3 -2 0
1491 150 17 0.0 453.4776008250778 477.0672191676512 749.0980897718587 3 -2 0
1426 150 9 0.0 444.9597035311555 491.33827907094536 749.3776180161589 3 -2 0
1425 150 17 0.0 446.164731645257 493.89344025009893 752.140404113763 3 -2 0
1497 150 17 0.0 446.63039222152344 487.8722578350064 749.2414735283278 3 -2 0
1486 150 7 -0.75 458.13815487724065 475.35906835365466 753.7111648251506 3 -2 0
1495 150 1 0.0 464.2693147005336 473.7363812781185 751.0090726201006 3 -2 0
1424 150 14 0.0 451.1648173119181 496.70146451991917 748.5741522709737 3 -2 0
1422 150 7 -0.75 451.2184982474488 496.1886702227921 744.6284516748997 3 -2 0
1498 150 12 0.0 453.21399531484303 486.0770139173746 750.2176522507601 3 -2 0
1421 150 17 0.0 449.2521632233635 486.01537652492493 749.7461999402298 3 -2 0
5993 150 9 0.0 445.52704642372777 488.0618115898265 756.42963031102 3 -2 0
2048 150 14 0.0 449.6060813347617 480.3317189473979 753.489045672456 3 -2 0
6255 24 17 0.0 463.57752183596864 484.31868178997513 755.9184914534812 1 -2 -1
1448 150 3 0.75 463.2029792273606 473.6339900307326 747.2340885058426 3 -2 0
6229 24 7 -0.75 467.03301974937153 483.38241603160606 755.296831760911 1 -2 -1
1220 24 14 0.0 459.2005099190929 492.0305369144443 757.4246479555849 1 -2 -1
6248 24 2 0.0 469.44023066128733 485.1073515667531 757.6189598120189 1 -2 -1
6251 24 2 0.0 462.8457398359658 487.7395129967963 758.1430176551663 1 -2 -1
1146 24 2 0.0 460.98609387534833 492.70895967460064 760.9634903879604 1 -2 -1
1496 150 18 0.0 462.19779689215403 475.4631035125467 753.5816364556886 3 -2 0
7669 114 17 0.0 468.9519024066242 479.08909283407996 758.5583360653374 4 4 -2
1692 24 7 -0.75 456.5033127443043 478.03493815603747 760.2243443981192 1 -2 -1
1684 24 3 0.75 452.92936291259207 476.6779277206776 760.6715412440303 1 -2 -1