LAMMPS data file via write_data, version 10 Mar 2021, timestep = 8504000

8505 atoms
40 atom types
8442 bonds
1 bond types

0 100 xlo xhi
0 100 ylo yhi
0 1000 zlo zhi

Masses

1 131.2
2 57.05
3 128.2
4 101.1
5 156.2
6 71.08
7 115.1
8 129.1
9 163.2
10 99.06999999999999
11 113.2
12 128.1
13 186.2
14 147.2
15 87.08
16 137.1
17 114.1
18 97.12
19 103.1
20 113.2
21 131.2
22 57.05
23 128.2
24 101.1
25 156.2
26 71.08
27 115.1
28 129.1
29 163.2
30 99.06999999999999
31 113.2
32 128.1
33 186.2
34 147.2
35 87.08
36 137.1
37 114.1
38 97.12
39 103.1
40 113.2

Atoms # full

7148 53 2 0 14.652380463270216 4.372782853030961 133.10145556283467 1 -1 0
50 26 1 0 8.537125143088357 3.5633075541391883 117.91632412702174 3 -1 0
6970 53 9 0 18.114019987727488 4.235261888973882 133.80613043222846 1 -1 0
7152 53 15 0 20.535792800260182 9.97250186023111 136.0165079083089 1 -1 0
7149 53 2 0 12.099133623381956 6.5549992413472 134.64173922986836 1 -1 0
7151 53 2 0 17.343479701140986 8.419465566544599 137.15043068573135 1 -1 0
7150 53 2 0 14.39022216568038 9.413123952340245 134.80515440201438 1 -1 0
6969 53 17 0 18.887780328884567 3.5769352144507547 130.13198551774474 1 -1 0
6968 53 15 0 20.013576341412424 5.6554206267062685 127.15945165313155 1 -1 0
52 26 15 0 6.091085755027576 3.4862606982584174 124.28306106969791 3 -1 0
392 26 12 0 10.064838378989789 0.23951145065700682 131.82923209639912 3 -1 0
53 26 6 0 8.513210602599305 1.4850685543813986 126.06912762205266 3 -1 0
51 26 6 0 7.744567141771436 1.754351669145768 121.3220382931968 3 -1 0
6103 53 5 1 41.362323433955396 0.9519226696614864 137.2053386924238 1 -1 0
7277 53 9 0 24.12241335772039 11.722232119815265 135.83908406973026 1 -1 0
2944 53 17 0 26.223564129007958 8.46872359779648 136.83211164545258 1 -1 0
6966 53 7 -1 24.764459844686986 4.1746003746862925 131.0922356493463 1 -1 0
6967 53 2 0 22.98396124048501 7.2342763225299835 129.27731786764878 1 -1 0
6802 53 17 0 24.670849581927556 0.6926383214201389 132.6281341912597 1 -1 0
6018 53 2 0 44.74898357525909 0.23872793331091097 135.71031738846958 1 -1 0
4594 53 15 0 62.2602887188329 23.457318658012998 132.8617546193776 1 -1 0
5885 53 17 0 50.04909075328703 2.5107554309862956 136.79370213609872 1 -1 0
4595 53 12 0 58.902746086032565 24.082089722630656 134.46142430903228 1 -1 0
6108 5 2 0 6.190941046923506 41.52578054622946 136.58443277787396 -1 1 0
5517 5 2 0 6.880887049994574 53.29959005066301 130.5727175121528 -1 1 0
6112 5 2 0 8.592040660949054 44.32828425426354 137.42077217514446 -1 1 0
2065 26 2 0 0.6835508817277041 6.973134593925185 150.09376135972514 3 -1 0
3779 53 2 0 18.255389236431828 17.85231000947804 145.1402473337779 1 -1 0
3660 53 15 0 19.592235625799297 12.032740963574767 144.92314900529195 1 -1 0
1158 26 14 0 21.054069277204235 6.0997498683312354 142.72051083360128 3 -1 0
1366 26 2 0 18.907321430533884 13.957661687401163 156.72962757161852 3 -1 0
7404 26 2 0 9.671902778862957 2.4068992961048488 154.19482744382017 3 -1 0
3846 53 2 0 16.9587269866499 25.354968262987565 150.398813295414 1 -1 0
3780 53 2 0 18.01215415654802 19.517122023677707 148.34965949021472 1 -1 0
3781 53 15 0 16.861372191431684 20.06877080658494 151.8245663696402 1 -1 0
3845 53 2 0 15.847502188641606 23.60186124907784 153.26818219437465 1 -1 0
1877 26 5 1 3.209730178112435 11.82213626739795 155.00441176050364 3 -1 0
7403 26 17 0 12.588872501252855 0.09023848328116912 154.9264664483171 3 -1 0
3766 53 15 0 19.058956841896077 14.612197788944142 147.48696009285362 1 -1 0
311 46 2 0 5.4904845903776405 26.041161610844103 151.07073149054585 0 1 0
679 46 15 0 4.270496601237243 25.640520967779388 154.51309000010266 0 1 0
1905 26 2 0 0.3002021371236511 9.7145342898409 156.7191492330485 3 -1 0
2224 26 2 0 4.9707751302728616 2.6856475793460524 148.47641384398585 3 -1 0
2225 26 2 0 7.769865053535573 0.8846017879112846 147.1956064410499 3 -1 0
2223 26 2 0 4.594880398726804 6.185988067442289 149.74523815681266 3 -1 0
7317 26 2 0 13.772370544912752 0.0671399788385969 151.250814807959 3 -1 0
5341 53 14 0 38.28551360891848 18.223757988083786 140.77376985792637 1 -1 0
5067 53 2 0 40.25621736729469 23.601552958407247 140.16432551166795 1 -1 0
1139 3 2 0 33.82241445809974 2.5112558984895657 154.51633746344928 0 0 0
1251 26 2 0 21.34678069901794 9.423988758092467 152.12667342956695 3 -1 0
1160 26 2 0 23.408973189896777 8.103333476757932 144.95188668130984 3 -1 0
917 26 17 0 21.939654142445434 2.6394493314723375 141.50843784399228 3 -1 0
1249 26 5 1 21.262038921622693 12.614253631998787 154.0865531986669 3 -1 0
1161 26 2 0 22.55640033983549 9.368875359509476 148.70959744849176 3 -1 0
483 3 2 0 40.48781265165917 13.35362002027441 146.9695856584544 0 0 0
5100 53 17 0 37.980121055130766 21.65194542338984 142.16299280810244 1 -1 0
3120 53 17 0 23.423251175637652 3.00382161697144 153.2797558139508 1 -1 0
3121 53 12 0 25.566399425601627 4.340475362772813 156.4174138604053 1 -1 0
3119 53 17 0 24.536275862785214 1.9778029192099789 149.7218897776341 1 -1 0
3443 53 17 0 30.862849131869186 11.012404854251404 149.8730856624174 1 -1 0
3118 53 2 0 28.14966463284176 2.914610608684328 150.3471745982067 1 -1 0
3117 53 17 0 30.472619542715012 2.0738488494955005 147.23838366824214 1 -1 0
3025 53 2 0 28.93903214339337 4.5090585443399 144.4242746343864 1 -1 0
882 3 15 0 41.50284459412557 8.184855216335297 145.04547276213194 0 0 0
3577 53 9 0 29.182991338472686 10.559805751310428 146.49932074204796 1 -1 0
3658 53 2 0 25.001815860567746 13.928490858850529 141.5330720174859 1 -1 0
3578 53 2 0 26.235835475669976 12.201754333705255 144.67165474513018 1 -1 0
3659 53 5 1 21.29140449490112 13.600285820094298 141.81435410932826 1 -1 0
855 3 2 0 41.46098074391385 5.843904165070768 141.78734501484954 0 0 0
2946 53 15 0 28.066460235703232 5.009812508331232 140.67225412365647 1 -1 0
2945 53 7 -1 29.442748964056825 8.506455752627332 139.32554492139943 1 -1 0
514 3 5 1 41.93705860935808 16.80381916309494 147.1675434417493 0 0 0
3441 53 2 0 30.206788617354363 11.98782739011185 156.57343954417874 1 -1 0
3442 53 2 0 30.686792441845835 9.946284874473644 153.46079513972248 1 -1 0
3265 53 18 0 29.995202766618306 21.012966440450306 156.4290205671601 1 -1 0
3326 46 2 0 39.519867876513686 25.399905068081264 153.65670607865135 0 1 0
3325 46 14 0 42.054988442102754 24.826997685030033 151.09196285703652 0 1 0
856 3 15 0 39.155153394402525 2.5777235197882926 142.2257753677669 0 0 0
857 3 2 0 39.60608634351994 3.2748138272504512 146.0404502297453 0 0 0
1137 3 14 0 36.69151578167728 5.487047725032997 150.23587150238404 0 0 0
1138 3 2 0 34.48890009606465 5.70589729588171 153.3182811257895 0 0 0
879 3 17 0 40.5683584269964 3.9883901978207827 149.90543900521587 0 0 0
1148 3 2 0 30.243228740182634 2.2437289159149536 154.5435247797613 0 0 0
5342 53 2 0 42.33539603269772 17.148902692708084 140.87739993925396 1 -1 0
4954 53 15 0 43.71714225559568 25.15243618273118 141.28048312807041 1 -1 0
5344 53 2 0 43.9017746005068 11.89091454278572 139.899295061099 1 -1 0
5343 53 2 0 44.993753556782096 15.234569647625479 138.6845414649187 1 -1 0
5441 53 5 1 47.345040408204405 10.506818263755612 141.45374264298357 1 -1 0
6133 46 5 1 54.25016552817863 1.917748469439133 157.046656101924 0 1 0
4953 53 2 0 45.34307516041281 22.24342071645548 139.83790505624634 1 -1 0
5719 53 2 0 48.110304311579355 0.7024388476152847 148.89966462368747 1 -1 0
881 3 5 1 42.78319683669161 10.403936374953842 147.79992859415432 0 0 0
482 3 12 0 45.165153034018125 17.740726936385986 145.63965295623083 0 0 0
512 3 15 0 52.12060855351509 20.366910843705725 147.61811421516174 0 0 0
513 3 15 0 48.354507290746156 19.476887926899344 147.50483993956948 0 0 0
5884 53 2 0 47.15445409375689 3.2955895486104114 139.40081915527549 1 -1 0
5883 53 2 0 44.4360844390374 2.1274040618808754 141.86135445338292 1 -1 0
481 3 15 0 53.268638306794266 19.08812633628816 151.17250656375032 0 0 0
140 3 15 0 50.650488159590346 15.07687076241517 157.07095370833662 0 0 0
5564 53 2 0 48.02897917069138 11.369483726712657 145.1555927101376 1 -1 0
5566 53 2 0 51.71953322348591 6.525051282647128 146.32794492341986 1 -1 0
4951 53 5 1 51.775692794070096 24.21270881824429 139.4203157695555 1 -1 0
4952 53 15 0 48.795433130292075 22.971935234129752 141.32094534654047 1 -1 0
4597 53 2 0 55.3395246094135 22.48127634991976 138.96367949880442 1 -1 0
4596 53 5 1 58.29152754253954 24.77125581146602 138.21120052057896 1 -1 0
2631 46 17 0 61.58632703357196 21.774069758484625 149.9195811683118 0 1 0
138 3 1 0 47.08658198203118 12.703912398303135 152.67822065368279 0 0 0
2635 46 15 0 60.817878752865894 15.076890848934235 155.5473755322118 0 1 0
2634 46 2 0 61.611972576033644 16.34021464391911 152.1036824554497 0 1 0
161 3 6 0 51.4427263162621 17.639541558613217 154.41999060439454 0 0 0
5567 53 9 0 54.08266250214532 9.57572569865084 146.5336015543305 1 -1 0
139 3 6 0 50.08240800049201 11.8337909669282 155.14803998268778 0 0 0
5565 53 2 0 48.23414118110905 7.77820271505689 146.61538397818038 1 -1 0
2794 46 15 0 48.231199059494024 26.17071483597349 149.72322841222262 0 1 0
5714 53 17 0 57.74397311867243 2.643232720443348 143.22052457922862 1 -1 0
2636 46 17 0 58.74075909707164 18.550807632079916 155.7189671921786 0 1 0
5882 53 5 1 46.43639357582699 1.335325918744173 144.97138041556715 1 -1 0
5568 53 2 0 56.903698884072455 8.12659368937171 144.18101344881174 1 -1 0
5573 53 2 0 59.82012431442046 5.629027888278142 144.06393123350784 1 -1 0
5715 53 7 -1 56.23279687508646 2.7022437402733233 146.62102530430099 1 -1 0
5717 53 2 0 51.68621027344109 0.8345250496785046 147.94353891992859 1 -1 0
6111 5 5 1 2.8259174784762964 40.95518070488786 138.60843184048687 -1 1 0
5997 5 2 0 0.1281795981506761 43.714867514935314 139.6181729564454 -1 1 0
7372 49 2 0 6.0682646741130455 36.37778765331311 155.61294250007265 2 0 0
7581 49 17 0 8.010909114783146 41.33397666840356 150.24907073379308 2 0 0
7419 49 15 0 7.818772118264124 36.31049782862692 145.07208717105058 2 0 0
7374 49 17 0 5.483909769997554 33.124337039915034 149.67672973625199 2 0 0
7373 49 17 0 5.184127812279705 36.34848386268877 151.71698637147105 2 0 0
7578 49 15 0 8.445423423223382 39.52681340982701 147.16419421966782 2 0 0
7375 49 12 0 5.245744737390004 33.86518735514968 145.75949398538606 2 0 0
4011 53 2 0 15.787867222854226 39.58305532190884 145.75130676004244 1 -1 0
4008 53 2 0 16.096446544083044 31.074133779897 147.0322679275635 1 -1 0
7583 49 2 0 11.363863009059896 46.055597301563964 147.06339316978608 2 0 0
4009 53 12 0 17.7383720994221 34.390680784590664 145.94068429664185 1 -1 0
7582 49 14 0 10.753628105284589 43.88125742939171 150.6254008849954 2 0 0
4007 53 2 0 15.158613990081207 28.336143182154572 148.56047299903403 1 -1 0
7590 49 18 0 13.384892544212795 48.83320566306208 145.576697323274 2 0 0
4010 53 9 0 14.228873843736954 36.532709873119344 146.06746258572724 1 -1 0
7765 49 1 0 16.80804480604701 50.087781848965065 146.29436356488338 2 0 0
310 46 2 0 8.702035401550523 27.575755638027502 152.8045889908596 0 1 0
6321 5 2 0 5.319839138848775 46.01566542161619 148.0176622691462 -1 1 0
6119 5 14 0 7.851708703636637 46.32732016168478 140.62598907412027 -1 1 0
6259 5 2 0 1.73463659008551 47.69115462930323 139.63130583488464 -1 1 0
6249 5 2 0 5.077534423260971 47.34195478272517 138.20889938661426 -1 1 0
6323 5 5 1 3.073379203467862 44.43819751744243 145.4188936080481 -1 1 0
4188 53 6 0 18.138761317898172 42.58849649417876 144.70294674525633 1 -1 0
4197 53 3 1 21.012959762798566 42.89233318844327 146.8187975392385 1 -1 0
1096 17 14 0 17.963759597321065 38.014798032195316 156.7109715072883 -1 -2 0
309 46 9 0 10.484863568964357 30.850609658364856 154.20770134547772 0 1 0
308 46 2 0 13.437755059522514 28.3446457500304 154.2423835353392 0 1 0
307 46 2 0 15.831359504141338 29.75854326725307 156.51436823998944 0 1 0
766 17 17 0 16.101829995324213 38.663883006767584 153.56244336418015 -1 -2 0
741 17 2 0 14.976864123740945 42.26382895235645 154.5468642122134 -1 -2 0
740 17 15 0 15.99086791112034 45.63683889635653 153.44399131685338 -1 -2 0
739 17 2 0 19.385760265961476 44.71485197421718 155.3084222344612 -1 -2 0
6480 5 2 0 5.596156811633194 53.34628481043446 146.97609163705846 -1 1 0
7766 49 3 1 20.49638935089184 49.81226082009552 146.62177280535283 2 0 0
6318 5 15 0 2.4150166925992202 47.34355629908524 143.2468414662372 -1 1 0
6479 5 2 0 5.141898959073216 49.667411202195844 147.6843086071995 -1 1 0
240 53 9 0 33.220699926647804 42.321580477872864 151.44500164445523 1 -1 0
3165 46 15 0 39.146937713500236 28.81826528644653 142.0045853506831 0 1 0
4198 53 18 0 23.69943465478166 44.10653052206485 149.09597866860938 1 -1 0
241 53 2 0 31.519860207421626 43.60957636517597 154.82155461642878 1 -1 0
4199 53 5 1 26.555040267312414 46.751872739911185 149.5614861270832 1 -1 0
4200 53 17 0 30.258599323182054 46.408600083368114 147.4622790639726 1 -1 0
3115 46 17 0 42.16178714583805 33.88935627943557 139.21395249609245 0 1 0
3116 46 12 0 38.97880585115263 32.055288911027226 140.21769475993364 0 1 0
246 53 12 0 33.46588894183146 46.07434047530541 145.1936259145602 1 -1 0
2299 54 2 0 40.451191863211264 50.611867152546125 148.7722322662042 0 0 0
3324 46 17 0 41.978951653120475 27.46132694570724 148.4418592216866 0 1 0
3323 46 15 0 40.259267349592506 29.393217542506136 145.71269849234866 0 1 0
242 53 2 0 28.62358264225959 45.69226531591556 154.51095575253512 1 -1 0
6473 54 2 0 41.993895833257724 50.828959594285536 156.03057464746934 0 0 0
2307 54 15 0 39.18332238077664 53.15942142980229 151.1867210158717 0 0 0
6630 54 2 0 38.47129522113619 51.32689581461459 154.5496438597767 0 0 0
713 10 2 0 38.76360745845511 44.393222379350966 155.39576075295193 0 0 0
714 10 15 0 40.61939348372334 47.052459027146135 153.231596936698 0 0 0
722 10 9 0 39.16814955679629 40.80612640397732 154.29811278279075 0 0 0
239 53 2 0 36.340784491851224 44.88859016756252 151.51404428913793 1 -1 0
7767 49 2 0 22.585019939061244 51.35844026963174 149.44920620936782 2 0 0
238 53 2 0 35.1289223496419 47.26354812225663 148.5533348050052 1 -1 0
729 2 5 1 61.36165223840698 30.458528380598352 154.76610557851401 0 1 0
2867 48 15 0 61.74068622090824 52.85139158614934 152.4515555779084 1 1 0
2940 46 9 0 49.13662787128871 27.0141556350621 145.92484933072285 0 1 0
2793 46 2 0 51.68885703794295 27.85785191701779 151.47159859931693 0 1 0
2792 46 2 0 53.3627506937429 27.893209052801765 154.85409920789672 0 1 0
3112 46 17 0 46.000708561026705 35.05118864478126 147.39487776718806 0 1 0
3113 46 2 0 44.01927151479672 32.01019767764405 145.49922185521453 0 1 0
3114 46 17 0 44.25432544277828 33.826232025127 142.31446533593788 0 1 0
2300 54 7 -1 43.69991016199794 52.44596708883611 147.6186641907794 0 0 0
3024 46 2 0 46.7829555890943 35.63102551147256 151.10196110770553 0 1 0
2942 46 7 -1 50.754745043327375 32.91580117436815 148.6941042949359 0 1 0
2941 46 17 0 50.47898724406268 30.638697821507826 145.18744574447388 0 1 0
2943 46 15 0 50.812111893555695 35.4774955560406 151.27146805376472 0 1 0
715 10 2 0 43.89295303891467 46.37063228194138 152.28851074718057 0 0 0
716 10 5 1 45.66761070175276 43.773669810753034 154.00311157067284 0 0 0
2301 54 2 0 46.79366587591793 50.71036702130195 146.49885813532552 0 0 0
2483 54 17 0 52.309399826361464 48.12203304494085 146.75535932352392 0 0 0
2482 54 9 0 50.102920875725886 50.57427044065002 148.48992591643133 0 0 0
2484 54 2 0 51.82857836862769 44.46095832683559 148.1958995612549 0 0 0
2485 54 2 0 54.13504165227913 46.174474208153306 150.8673763876832 0 0 0
2486 54 2 0 57.7564557020251 45.52854539848932 151.8412516412512 0 0 0
362 2 5 1 56.13791875255045 36.52578263690337 156.2459772785046 0 1 0
733 10 5 1 49.075846347800415 45.11669654890712 155.91505960778719 0 0 0
1086 10 15 0 51.92559552832152 47.56658744494147 154.64452294759792 0 0 0
2492 54 17 0 60.20018782355386 42.6091682062838 153.241548102263 0 0 0
334 2 2 0 57.736821642696185 32.95814204951902 155.70336464802455 0 1 0
357 2 15 0 48.96316236226154 37.63047873130348 155.81158386334263 0 1 0
2640 54 7 -1 63.10647932981529 40.863052184095324 153.7666850602798 0 0 0
6472 54 9 0 45.76718216527102 51.429233252320756 156.76860511001746 0 0 0
345 10 5 1 1.1656810583511075 22.756744037229144 162.60450653400932 0 0 0
1560 3 17 0 16.838280519037067 0.33677919411238305 165.96991566419845 0 0 0
7405 26 17 0 8.044509765772085 3.1809454729151323 157.50517000805806 3 -1 0
1368 26 2 0 19.131210355817338 10.516412590353546 161.8084360461531 3 -1 0
1367 26 2 0 20.247453355808727 13.8534573117458 160.21440518937007 3 -1 0
7406 26 17 0 9.658252336554039 1.5985479388114106 160.64208389211862 3 -1 0
1798 26 2 0 4.829823186404186 13.601039571252347 158.10067793743897 3 -1 0
1797 26 15 0 4.955301575697327 13.185781053815893 161.67864973933283 3 -1 0
680 46 15 0 2.0588177326980883 25.453592850884917 157.31384167288897 0 1 0
7407 26 12 0 8.966364983452358 2.471556043986655 164.61190808864228 3 -1 0
1369 26 9 0 17.97243546463121 8.27090987530256 159.01320185137794 3 -1 0
1519 26 2 0 12.31945786791214 12.199683768907573 160.47224346774098 3 -1 0
1370 26 2 0 15.560839184620717 11.175437916001327 158.7749826286393 3 -1 0
1678 26 2 0 11.218264906873664 19.099034378604326 168.6816233136954 3 -1 0
1521 26 7 -1 9.482274727866729 8.372235527972736 161.89655886114406 3 -1 0
1679 26 17 0 9.847355856158554 17.884243451216808 165.59683610982015 3 -1 0
1676 26 5 1 13.382696554388323 12.042086923525 168.44291187388336 3 -1 0
1677 26 2 0 13.502883130893633 15.829789012560058 169.33340682439527 3 -1 0
4002 46 2 0 16.48530225687976 16.65891047170498 175.96203604254697 0 1 0
1527 26 2 0 10.744650468303867 9.627506717687709 169.2421486415489 3 -1 0
4187 46 6 0 11.110195088201786 23.465553797745056 170.7209213375969 0 1 0
1523 26 2 0 7.935618209439578 11.159890742015115 167.1723552406912 3 -1 0
1568 3 7 -1 20.439035686556075 1.814755101467057 164.6521562755193 0 0 0
1680 26 9 0 7.258732272665087 15.705823941265649 163.6018805407967 3 -1 0
4194 46 3 1 10.945269727056443 26.36931305880348 168.07033801351798 0 1 0
8472 26 5 1 3.5726624612204083 5.840704290297207 170.89405671216602 3 -1 0
1522 26 17 0 7.581936323281005 8.113999826945216 165.0821214644525 3 -1 0
3840 46 2 0 17.695477839985656 18.395650812012992 164.94219614670482 0 1 0
3841 46 2 0 20.076709618407353 16.947046848087563 167.47637925019248 0 1 0
8473 26 17 0 7.206093526026364 5.656553829404551 170.85013487326117 3 -1 0
3696 46 15 0 19.08393856932987 23.567740961363267 167.09778925962613 0 1 0
3836 46 15 0 15.71459917405438 21.381235629291425 166.28358858779123 0 1 0
6860 3 9 0 18.871009639652517 8.798283925148487 176.3387296781341 0 0 0
6859 3 17 0 15.256647233401882 8.427706324835786 176.2236476185421 0 0 0
1570 3 2 0 16.404266274516537 1.7925513543786638 170.8749684041131 0 0 0
4004 46 12 0 18.46052677568911 23.391148757176254 176.30320418410133 0 1 0
1520 26 17 0 9.696049970098281 10.266138033005308 158.66989991920852 3 -1 0
1729 3 5 1 19.70264401087684 0.7263904090276048 171.832136754745 0 0 0
4476 26 12 0 9.95940944989689 4.429541969176461 172.52310348561437 3 -1 0
4466 26 2 0 10.947660992890375 1.039059730627753 173.238345509099 3 -1 0
3844 46 2 0 19.00227320220211 14.80380614373338 173.7334201685479 0 1 0
1730 3 2 0 18.669247317026016 1.6763139804343448 175.4655088667574 0 0 0
344 10 12 0 0.6306003247643533 19.227026223098918 160.95786595041193 0 0 0
2754 49 15 0 3.242759690439195 25.778587615916337 171.65465615710488 2 0 0
4006 46 2 0 13.378750979069551 25.698020999802726 172.90657035136843 0 1 0
7408 26 15 0 9.489753323376348 0.3886883165178128 167.46197241732648 3 -1 0
1569 3 2 0 16.079986564890827 3.742920678815557 167.56976012893625 0 0 0
4005 46 9 0 14.958445351024606 24.811893835728327 176.15809692411952 0 1 0
3122 53 15 0 25.24585298490331 7.907068737111828 157.52007135198735 1 -1 0
3262 53 17 0 25.416120623665112 15.226069224717111 160.00374629824563 1 -1 0
3261 53 15 0 25.334817094935026 11.37929860689917 159.01069174929466 1 -1 0
3263 53 14 0 25.25159481796165 18.990250354151673 161.37778327429555 1 -1 0
3264 53 2 0 26.73823868061098 20.998651690520276 158.32404300608297 1 -1 0
3440 53 3 1 32.267997908926844 13.935711157375081 158.98011956768855 1 -1 0
3439 53 1 0 31.341937052602287 17.334119940751105 157.25079525733733 1 -1 0
1407 3 2 0 24.76274609974583 6.263891242976521 168.09036159825447 0 0 0
1567 3 17 0 21.95284829394039 4.818852302034071 166.43566908495976 0 0 0
1400 3 2 0 28.21616812646087 5.820434127410456 166.97845066016265 0 0 0
3842 46 15 0 21.247519740089842 17.947684795114785 170.57054874900723 0 1 0
3511 46 2 0 31.95929715378672 23.748134327762994 162.6058589966191 0 1 0
3510 46 3 1 32.821103863540465 26.35204323579331 159.8406205332131 0 1 0
3843 46 2 0 22.876347009997477 15.041325376945215 172.63112121976985 0 1 0
1399 3 9 0 30.309784892238444 2.539397569202786 167.8778358216313 0 0 0
3512 46 2 0 29.834490433703362 23.68805234196421 166.15210247019039 0 1 0
3513 46 17 0 26.966491418200903 25.610885631922827 165.76395011567146 0 1 0
7039 3 2 0 21.899588425426867 8.275392927623395 173.84262617124236 0 0 0
7028 3 2 0 25.092785980967566 8.714485019543087 175.65953758484352 0 0 0
1116 42 15 0 41.974333611833266 24.00303623390728 166.0983075014503 0 0 0
688 54 15 0 36.82121349033101 0.23864693504126105 170.15243107729512 0 1 0
247 54 2 0 55.53145254468367 1.8967952912020436 173.83139853530614 0 1 0
315 54 2 0 48.728835296814665 0.38727791797686506 169.34114285002005 0 1 0
6303 46 14 0 56.07517253027072 9.033915017249571 160.69145776463367 0 1 0
6315 46 2 0 62.65713142529668 8.138787896776263 162.04761612066784 0 1 0
6459 46 2 0 62.19459455137469 10.377755313022583 158.70362355767014 0 1 0
6306 46 15 0 60.195337252252514 10.000916376091508 166.1258635072553 0 1 0
316 54 2 0 47.802296407178694 3.952268410490477 168.07956923521922 0 1 0
6307 46 5 1 63.05913966905414 11.260448711644916 163.8913713283191 0 1 0
4202 54 18 0 59.439853423342434 0.2939795047354918 165.6698001454 0 1 0
4203 54 5 1 61.919288342909546 0.3769257222787286 168.52958007544555 0 1 0
313 54 2 0 51.77584302492661 1.531887066159402 172.83656398119047 0 1 0
4204 54 17 0 60.075816271803276 0.16856725191238423 171.55576561070257 0 1 0
2791 46 2 0 54.7786456563634 26.43784342536377 158.1363380632241 0 1 0
8252 56 2 0 56.88152265866005 19.30207439464849 175.54303749479584 1 0 0
4185 54 12 0 58.94904834445653 0.6795403517157375 175.07536156707417 0 1 0
6305 46 2 0 56.707172533140216 9.38329772708903 167.62190168318833 0 1 0
8046 56 2 0 62.928854930145754 16.275728345310583 171.29301476877856 1 0 0
2637 46 9 0 59.28467578009043 20.64229464133341 158.69056448750592 0 1 0
2790 46 2 0 56.184802569793675 22.869627893351975 157.6099381587612 0 1 0
685 54 15 0 44.23268187604572 2.76120513118805 167.5014941620439 0 1 0
6135 46 2 0 58.285303357944606 5.895238940000073 160.2338335019576 0 1 0
4734 56 15 0 52.95580634393007 22.555915130344662 175.2252994076271 1 0 0
4733 56 15 0 49.87321881620705 19.8311200524898 175.85020646970924 1 0 0
6304 46 2 0 54.50574335898946 8.875662952953709 164.34807518889735 0 1 0
6134 46 2 0 57.75215723911456 2.8518593552450384 158.6071212134655 0 1 0
6643 10 17 0 15.451513292885448 52.90750694354392 174.4855467355422 0 0 0
681 46 15 0 1.1012024142599968 28.803827060615728 158.94368217449025 0 1 0
7307 49 17 0 7.333178570426362 39.51764933145145 157.51143659993284 2 0 0
1097 17 2 0 17.287454047753148 39.1021618921531 160.36934798961988 -1 -2 0
4589 46 15 0 3.5823368454011413 28.511169010379604 161.60753984314744 0 1 0
4195 46 18 0 12.809165828493907 29.839168004779328 167.8595391539 0 1 0
6636 5 7 -1 16.927813488612728 53.45741059725205 159.2362354778521 -1 1 0
3695 46 5 1 19.178928536634753 27.03464903407948 168.55647755442004 0 1 0
5210 40 5 1 1.152459538465249 50.601504580009156 167.5842247416388 1 1 0
1222 17 2 0 15.412567054671987 43.985758776566605 163.94669412617392 -1 -2 0
1098 17 2 0 16.307712917033303 40.30654845255481 164.2695820777001 -1 -2 0
4196 46 5 1 14.88581795574873 31.444985338510534 165.12729068581598 0 1 0
4212 46 17 0 17.68453420947068 31.03737371551473 162.83575782335507 0 1 0
4590 46 15 0 6.675880923040554 30.628341193239443 161.30410321765766 0 1 0
4598 46 15 0 8.390932101286126 33.909928777046225 162.6016077275473 0 1 0
4947 46 2 0 9.198798184531817 38.90140826521761 168.15246088039495 0 1 0
4946 46 9 0 9.482284076745882 36.267418152301275 165.36051138669322 0 1 0
4948 46 15 0 12.890277053880896 40.30514711532929 169.18284243413734 0 1 0
4950 46 5 1 20.09695765418995 41.205544377505255 171.7423093441898 0 1 0
4960 46 5 1 20.29052144059548 44.31585090031615 173.96878463980897 0 1 0
2756 49 9 0 2.760548566517877 32.36666240190224 170.23179027188021 2 0 0
4949 46 2 0 16.009169755795146 41.14017149676705 171.27196764590275 0 1 0
7193 49 15 0 8.890496113066913 45.25854207491959 161.2530472340032 2 0 0
7192 49 7 -1 9.384497901226913 44.38957276082452 165.06430244959415 2 0 0
7306 49 2 0 6.456138235908288 43.160780677432165 159.1766984800463 2 0 0
7012 49 15 0 0.9752925973745373 42.773922846137445 169.93027267102948 2 0 0
6491 10 2 0 3.6140257766666917 46.268516633056805 174.58090984255452 0 0 0
7191 49 17 0 5.710802544629672 43.26646561884959 166.04815067781834 2 0 0
7190 49 9 0 4.486422876979278 42.78321228271733 169.72469243294688 2 0 0
2755 49 17 0 4.468345939215377 28.688209459385956 169.9261710226901 2 0 0
4505 42 2 0 17.69045816630091 32.053130727659884 176.48598185983406 0 0 0
5286 46 15 0 18.914194603859446 47.439209934315066 175.43767445133324 0 1 0
6492 10 7 -1 6.578198848037103 48.61898556168922 173.4071386030792 0 0 0
6493 10 2 0 10.234819590065161 49.66928890441945 172.00803746525648 0 0 0
317 46 12 0 17.66517512614552 31.68116503597679 159.08634261183727 0 1 0
6642 10 9 0 14.048176279492097 50.838131113360184 171.92622134812538 0 0 0
1288 17 2 0 20.790449658556838 45.2516334832004 164.64027387701353 -1 -2 0
1223 17 5 1 17.42733789282577 47.10886269951704 164.68507586444056 -1 -2 0
4852 42 15 0 20.743631435729807 30.958743079139165 174.450990212333 0 0 0
2037 49 5 1 8.813495902124608 42.11983340332149 175.3116052147893 2 0 0
738 17 15 0 19.262517143657455 47.72147994221973 157.73160289652205 -1 -2 0
5213 40 15 0 11.112249311166813 51.080945632978136 166.18431335369843 1 1 0
5211 40 15 0 4.682439561598536 49.144643813507884 167.9809515778289 1 1 0
5212 40 2 0 7.298061883124276 50.39375674020703 166.23325005774726 1 1 0
2396 10 15 0 0.03276201133121891 47.266321667739895 173.73868678123387 0 0 0
2198 49 2 0 3.0180390969759157 38.70185439418047 173.24919597975483 2 0 0
2039 49 2 0 5.700542811488017 39.64498573332138 175.534006681521 2 0 0
2199 49 2 0 0.98339689125721 38.18191848348839 176.37201859410558 2 0 0
2036 49 15 0 11.520451585173047 39.28407362261433 176.2934896777471 2 0 0
2035 49 2 0 14.605785125902381 37.374714554666866 176.84946656533043 2 0 0
3327 46 18 0 39.50577924780481 27.245092092829584 157.45440923447072 0 1 0
3509 46 1 0 35.87973019393484 27.47202032180875 158.312270454195 0 1 0
599 53 15 0 28.903261745951784 48.20725888426321 157.623837370961 1 -1 0
354 10 15 0 40.05422030873628 39.44984517777313 157.54848828587066 0 0 0
601 53 15 0 32.60503063786697 52.09303628167259 161.34070160188347 1 -1 0
3602 46 2 0 23.242746194597824 28.83064903604428 162.7553679400933 0 1 0
3694 46 2 0 21.46165664826333 27.609359883152006 165.8199861389495 0 1 0
3601 46 9 0 26.568947535737447 29.24583382461894 164.75704972500816 0 1 0
374 17 2 0 24.85321081187956 52.34944394050518 157.73773074149014 -1 -2 0
6804 5 17 0 24.396300846226648 53.14493391560668 165.26310656658336 -1 1 0
803 42 5 1 41.83731926132098 30.025605965949033 163.34778511639755 0 0 0
828 42 5 1 40.473006109818066 26.956065521801268 165.04344621180562 0 0 0
7383 10 17 0 41.4925945278997 38.59522797035021 173.39847323878234 0 0 0
1289 17 2 0 23.18920137234147 42.35556823542077 163.21452401798481 -1 -2 0
1290 17 2 0 21.79461537283321 38.71199131948293 163.5396697685682 -1 -2 0
6820 10 9 0 33.547599641714854 47.996349845956686 175.18356909376712 0 0 0
7201 10 17 0 40.95197290608879 49.69790421431804 164.37314261678387 0 0 0
7200 10 9 0 40.5038671384995 50.94664009350488 167.96318691802682 0 0 0
7202 10 7 -1 42.039185176952344 48.315071764373 161.22684170889772 0 0 0
800 42 2 0 35.64900296891243 30.938507519762446 168.63183043937667 0 0 0
801 42 15 0 38.25786721481738 33.759265352795836 168.40980771751413 0 0 0
4775 10 15 0 33.947791665941075 40.17326576386836 160.48877155160946 0 0 0
4441 10 2 0 35.5375491618693 43.50642908946777 161.74416939788063 0 0 0
4440 10 2 0 33.64975625400222 41.675153455707154 164.83694665922886 0 0 0
600 53 15 0 29.79572509414095 49.41766166481516 160.93219822387857 1 -1 0
460 42 15 0 28.15310760873394 30.15579989762021 173.0222716637333 0 0 0
458 42 15 0 33.01358565426055 27.580751695360018 171.02240233687579 0 0 0
4854 42 15 0 25.071239793297167 28.898286876823118 170.88290448336798 0 0 0
4853 42 15 0 23.161236947212107 32.031859188702356 171.5630854960947 0 0 0
4438 10 2 0 39.54826356051833 37.928365057012115 166.30940562115285 0 0 0
4776 10 15 0 33.22907865859493 37.57205613571683 162.518480476545 0 0 0
4777 10 15 0 33.75387702793965 35.23458844798637 159.27112477471496 0 0 0
364 10 15 0 37.34478876848596 35.69378901858216 160.50642092572636 0 0 0
365 10 15 0 40.2397952593245 37.87695833539841 161.13717216296962 0 0 0
4439 10 9 0 36.70580230019842 40.48593898943354 166.75843949714678 0 0 0
802 42 2 0 39.61506550233671 32.556613179919935 165.2115212462702 0 0 0
1292 17 2 0 24.271291681615626 37.97180599133713 168.61399322995953 -1 -2 0
1454 17 2 0 27.388302929244876 39.680355067516636 167.39355857141365 -1 -2 0
1455 17 17 0 30.57009154913197 38.8336510202562 169.65913432160335 -1 -2 0
1456 17 7 -1 32.309178316056695 38.573094439011605 172.53291281796578 -1 -2 0
1291 17 9 0 21.969631233271787 35.99320716682937 166.18557619395665 -1 -2 0
461 42 15 0 30.93533069971287 28.201781721152823 174.1501750069331 0 0 0
824 42 9 0 32.833434960330116 28.86252923459624 167.6699920360679 0 0 0