LAMMPS data file via write_data, version 29 Oct 2020, timestep = 100000

13500 atoms
40 atom types
13400 bonds
1 bond types

0.0 140.0 xlo xhi
0.0 140.0 ylo yhi
-360.0 360.0 zlo zhi

Masses

1 131.199997
2 57.0499992
3 128.199997
4 101.0999999
5 156.1999999
6 71.08000180000001
7 115.099998
8 129.100006
9 163.1999999
10 99.0699997
11 113.199997
12 128.100006
13 186.199997
14 147.199997
15 87.080001
16 137.100006
17 114.099998
18 97.1200027
19 103.099998
20 113.199997
21 131.199997
22 57.0499992
23 128.199997
24 101.099998
25 156.199997
26 71.08000180000001
27 115.099998
28 129.100006
29 163.199997
30 99.0699997
31 113.199997
32 128.100006
33 186.199997
34 147.199997
35 87.08000180000001
36 137.100006
37 114.099998
38 97.1200027
39 103.099998
40 113.199997

Bond Coeffs # harmonic

1 9.6 3.81

Atoms # full

2431 19 1 0.0 1.7715465616251365 3.7652322550148396 -84.66892925491379 1 0 0
12430 93 2 0.0 32.770039083121404 5.53425822269304 -76.13683500852444 0 1 0
12429 93 5 1.0 30.454376993345807 3.3476742783898215 -78.54960943949095 0 1 0
12433 93 2 0.0 42.02680783137064 0.3961214522289538 -74.91979248468296 0 1 0
12431 93 5 1.0 36.71372893396206 4.793100127680626 -77.45039484425224 0 1 0
12432 93 15 0.0 39.80630959887241 2.388408827165028 -77.03708103298266 0 1 0
5014 38 2 0.0 0.44075588265281485 37.447354114158216 -67.43280645024733 1 0 0
5131 39 1 0.0 8.469163820563534 54.88778501652561 -70.32776830715632 1 0 0
5132 39 6 0.0 6.49506345953425 56.94848063790584 -67.65958263609613 1 0 0
3788 29 12 0.0 20.123289293441992 55.0447722241656 -67.09783213598323 1 0 0
3786 29 15 0.0 21.723942558715283 61.59022007075443 -69.80808295107359 1 0 0
3787 29 15 0.0 20.10995785672366 58.37782863217908 -68.7965512635701 1 0 0
3791 29 5 1.0 12.942938645574708 48.72986401588925 -71.15937551617391 1 0 0
3789 29 5 1.0 19.53772521109533 51.6960682911051 -68.84765466579636 1 0 0
3790 29 2 0.0 15.732290029100774 51.230350892555286 -70.17433166992167 1 0 0
5133 39 15 0.0 9.019458822963475 60.149995645329035 -67.19850767698705 1 0 0
3792 29 15 0.0 10.071835778028882 48.92915454438026 -68.60036272825258 1 0 0
3782 29 6 0.0 28.699059760981754 53.71673334646816 -71.66130734209948 1 0 0
3784 29 6 0.0 23.546606819970016 56.65782904806258 -73.06152111738851 1 0 0
3785 29 15 0.0 23.629953888140893 60.61417602014308 -73.17309979331367 1 0 0
3783 29 15 0.0 26.84145569626145 56.60090258394928 -70.84983235916333 1 0 0
3781 29 1 0.0 25.794495034216297 51.06458315048889 -72.13030368738944 1 0 0
1490 12 15 0.0 9.677430608219716 5.921567757715206 -53.15297815507345 0 0 0
1496 12 5 1.0 17.171168568655915 15.667892294772543 -65.52428606952422 0 0 0
1498 12 2 0.0 11.555975528855935 10.42932752280416 -65.54587415783674 0 0 0
1497 12 15 0.0 14.029467489467441 13.340535811925756 -65.95236346089897 0 0 0
1502 12 14 0.0 13.336555716370675 20.825726309198924 -61.23710459480689 0 0 0
1495 12 2 0.0 17.41935639740073 14.865976305087008 -61.85445419810683 0 0 0
1491 12 15 0.0 12.624057745336208 4.912238837528509 -55.19350428697644 0 0 0
1492 12 15 0.0 13.997414642608474 7.727069315018477 -58.094058764661426 0 0 0
1501 12 17 0.0 10.897719608437809 17.916807911399633 -61.21862611733668 0 0 0
1499 12 15 0.0 8.775730932304814 11.490552892965509 -63.17854295812265 0 0 0
1504 12 2 0.0 19.32600636921949 21.65735951168921 -58.94314660588127 0 0 0
1503 12 2 0.0 15.686523474701131 20.991486830187565 -58.236432857709616 0 0 0
1500 12 2 0.0 11.385246693758784 14.385218474475511 -62.17318109335197 0 0 0
1505 12 2 0.0 20.278848309096876 19.764782283329865 -55.516282790293076 0 0 0
1356 11 15 0.0 13.895494623923312 18.513468568585406 -52.09160544607836 0 0 0
1494 12 5 1.0 15.97048350171191 14.36281466889955 -58.402959037348325 0 0 0
1508 12 2 0.0 22.851213526455943 13.993509439672376 -50.50017248443646 0 0 0
1509 12 2 0.0 21.028471474769862 16.59322029280884 -48.39414073841375 0 0 0
1355 11 15 0.0 15.27516778848781 19.129672820646736 -48.31205466166009 0 0 0
1354 11 6 0.0 14.626848620035132 22.708554353769486 -47.73578529883931 0 0 0
1493 12 12 0.0 15.445980588266037 11.112567600229019 -56.63081475431958 0 0 0
1357 11 15 0.0 13.555811287924897 22.08226768994823 -53.32029982434563 0 0 0
1358 11 12 0.0 10.32777246007024 22.352099790252325 -55.05220804237188 0 0 0
1489 12 6 0.0 7.05661042037729 3.18832394400306 -52.12848677739332 0 0 0
1488 12 15 0.0 8.759128189877956 3.4151569747734327 -48.6452600202259 0 0 0
3659 28 15 0.0 4.075671286571911 18.21203074050352 -48.009621208650834 1 0 0
1506 12 5 1.0 23.558390843774365 18.568188952076454 -55.11118467085273 0 0 0
1507 12 2 0.0 24.796920482330812 16.87687514863681 -51.76272404941355 0 0 0
1381 11 14 0.0 32.696393257474945 18.899089602031427 -48.82588163973733 0 0 0
1382 11 2 0.0 34.76846336374506 22.135551078469504 -47.52574173322688 0 0 0
12454 93 2 0.0 43.659211306432866 6.707527877675494 -49.58907914672337 0 1 0
12456 93 17 0.0 44.88084403699515 11.496420885514508 -51.90453541510465 0 1 0
12455 93 2 0.0 41.41789165387993 9.837541130144407 -50.9071702418873 0 1 0
3799 29 2 0.0 4.222490996857493 45.82231072351174 -50.82753136401888 1 0 0
3798 29 2 0.0 1.815090836051809 44.25501017159011 -53.43816530440427 1 0 0
3797 29 14 0.0 0.5221889299041157 44.132155608279994 -56.6804843491751 1 0 0
3796 29 17 0.0 4.07994719623167 45.40433650747647 -58.53353035271627 1 0 0
3794 29 15 0.0 8.722188394273697 46.51522778423045 -62.75359998929886 1 0 0
6347 48 6 0.0 16.874462583337568 45.35268236943487 -49.638074428116546 1 0 0
6348 48 15 0.0 19.38867336486262 44.22789054754441 -47.17804730206478 1 0 0
1359 11 5 1.0 8.996980433267701 25.92578122610152 -55.1411635998244 0 0 0
1360 11 2 0.0 7.512805934455397 27.396045338221416 -52.20230002354165 0 0 0
1361 11 5 1.0 5.318666449191597 25.546576169587382 -49.39272238251928 0 0 0
3801 29 5 1.0 10.345317797613774 43.63001234356823 -48.52236659007908 1 0 0
3800 29 2 0.0 7.709057344673841 46.353665267046274 -49.65427244336552 1 0 0
6346 48 1 0.0 18.828197121519388 46.6128418089415 -52.593450539989085 1 0 0
1512 12 2 0.0 23.776513174192473 24.684928397196376 -49.21770773045136 0 0 0
1513 12 17 0.0 26.838291270560966 25.89517881512801 -47.13680095837911 0 0 0
1383 11 5 1.0 36.22690644200831 25.380333947573565 -48.03785394912812 0 0 0
4195 32 2 0.0 20.457871299374826 67.33819375916295 -53.27922278206871 0 0 0
5134 39 6 0.0 11.92615861763144 61.06510149383849 -64.70610320306508 1 0 0
5135 39 15 0.0 13.608905081177024 64.56940066272772 -64.87428370437422 1 0 0
3793 29 2 0.0 10.843929005242947 49.023452121373055 -64.86900037913546 1 0 0
3795 29 2 0.0 6.335652244819158 47.748073927548226 -59.64433261244282 1 0 0
4192 32 15 0.0 17.718656539682545 61.98553783629787 -48.30626825113032 0 0 0
4194 32 5 1.0 22.202763708878315 66.10305996452529 -50.065030252060424 0 0 0
4193 32 12 0.0 21.360188921639374 63.050526110398245 -47.5171468304778 0 0 0
4198 32 2 0.0 20.816765074100083 59.76414666548559 -60.746451276669106 0 0 0
4199 32 15 0.0 21.64238687142234 58.45528270739688 -57.21432825177473 0 0 0
4197 32 15 0.0 20.253948966051485 63.295448872767196 -60.03485067264485 0 0 0
5136 39 15 0.0 15.553362486135216 67.33560366115888 -62.89200080658283 1 0 0
4196 32 5 1.0 20.364377394472314 65.8673899027602 -57.231455417668 0 0 0
4189 32 6 0.0 9.698721333325322 60.14385886049606 -53.9584642825376 0 0 0
4191 32 15 0.0 16.726858987862812 61.14603805520795 -51.97945229328868 0 0 0
4190 32 15 0.0 13.13890606061263 60.77726526993281 -52.011527147159136 0 0 0
4205 32 2 0.0 20.592595451936884 55.8910893527053 -51.153213077177575 0 0 0
4188 32 15 0.0 10.56373131767615 61.686672356977716 -57.459450299396615 0 0 0
6357 48 15 0.0 10.29206705512793 50.59978113261343 -47.40099049150357 1 0 0
6358 48 2 0.0 13.805953208037913 52.721241093021746 -47.862852094690865 1 0 0
4206 32 5 1.0 19.657873075804197 54.13755870311754 -48.02266378925914 0 0 0
4187 32 6 0.0 11.929232501706162 64.96264164075065 -55.60579097420564 0 0 0
4186 32 1 0.0 13.306138285415617 67.89484054100919 -57.63503911126944 0 0 0
4204 32 2 0.0 23.454678899270373 58.862376225883565 -50.56295213473649 0 0 0
4201 32 17 0.0 27.83614064267169 55.27990456339577 -55.024867017808916 0 0 0
4200 32 2 0.0 24.53227509268005 56.81889626583113 -55.925849903082025 0 0 0
4202 32 14 0.0 28.724232818709424 53.982534736197714 -51.455239437274344 0 0 0
4203 32 2 0.0 25.095425763945762 55.42850391360348 -50.54018990256221 0 0 0
7022 53 6 0.0 42.2472276462166 67.64558565715228 -57.15868555136441 0 0 0
7021 53 1 0.0 41.702943712011425 69.39663205590438 -60.197048644946534 0 0 0
7025 53 15 0.0 45.35990740047694 64.52208156909808 -50.9230418380641 0 0 0
7023 53 15 0.0 45.441243895822275 65.2565756705894 -57.68373882877615 0 0 0
12698 95 12 0.0 39.290154510906326 51.56808681744267 -48.11327820980434 0 1 0
12697 95 15 0.0 42.98680597865697 52.79008493943569 -47.721021852567134 0 1 0
3660 28 2 0.0 2.4809640373376736 15.670499840896285 -45.19182045540821 1 0 0
3658 28 2 0.0 1.5068755301002688 20.950887273177912 -46.7132061214062 1 0 0
3661 28 17 0.0 5.4319113542012145 14.933798189288648 -43.479476867766 1 0 0
1367 11 14 0.0 12.313348233156 16.470284553963758 -40.59406276555009 0 0 0
1368 11 2 0.0 15.623181160463133 15.43290945459697 -39.498822963474744 0 0 0
1369 11 2 0.0 15.371271955003605 12.469771440672215 -36.7027760004222 0 0 0
1366 11 17 0.0 13.019081034320164 19.740558273027027 -41.51107814624271 0 0 0
1373 11 2 0.0 17.849178882544656 8.293550266058936 -39.20787560259613 0 0 0
1374 11 2 0.0 15.720748609006488 10.285361993099604 -41.85347683279953 0 0 0
1375 11 14 0.0 17.885881640291473 11.299125213043586 -44.3847781228299 0 0 0
1372 11 2 0.0 19.834701826147747 8.97933607077499 -35.66135671200943 0 0 0
1371 11 5 1.0 21.22236285762247 11.98050147585047 -34.565837273199826 0 0 0
3663 28 2 0.0 3.2245082919237547 14.929969156331248 -36.825837090739675 1 0 0
3662 28 14 0.0 4.7554858368460815 16.22166157593266 -39.84569364942473 1 0 0
1365 11 2 0.0 10.012328914662367 22.152734353134075 -43.29303940310242 0 0 0
1376 11 2 0.0 21.946460179081278 11.035671954501458 -43.32471456986605 0 0 0
3665 28 2 0.0 3.1863001259829837 18.427897563969974 -33.05777432954684 1 0 0
1240 10 14 0.0 20.262789238101547 19.261013920865548 -40.089936069526864 0 0 0
1486 12 1 0.0 11.010137932815978 7.993849378523155 -44.211578545761625 0 0 0
3666 28 5 1.0 6.905593984923948 16.626575474087943 -32.774786037775826 1 0 0
1487 12 6 0.0 8.469486251262836 4.888219237784025 -45.21667706712414 0 0 0
3664 28 2 0.0 0.7616325550624281 17.491577972453875 -35.46798303829665 1 0 0
1370 11 2 0.0 18.795220121271 14.690439352759288 -35.90347466266342 0 0 0
3673 28 17 0.0 15.896043801433336 7.907911627325355 -30.04044441034838 1 0 0
3674 28 2 0.0 12.308357732277539 8.630479458866683 -29.377979060832587 1 0 0
3675 28 17 0.0 9.609038320767302 10.65357200342641 -30.50986255081676 1 0 0
3672 28 2 0.0 18.586726410730805 9.76568801127153 -27.967810905137338 1 0 0
1241 10 2 0.0 21.048654691326586 19.99040455064059 -36.48888448906569 0 0 0
3676 28 14 0.0 7.1446400470952165 11.575011137727389 -27.583568004679254 1 0 0
3668 28 2 0.0 11.206528130325344 18.136550678696878 -27.656138210071536 1 0 0
3667 28 2 0.0 7.5909300957605 18.596809029375105 -28.998618889085012 1 0 0
3670 28 14 0.0 15.051912250284433 14.418969018055781 -29.69336481059297 1 0 0
1220 10 15 0.0 21.42828352241997 6.238819448062619 -29.651543460554105 0 0 0
1407 11 2 0.0 16.36411787594647 20.51085424574722 -28.99470164195663 0 0 0
1406 11 2 0.0 18.99361489640193 18.361328768636593 -28.65834985393036 0 0 0
1510 12 14 0.0 23.657724477273717 17.67320758573609 -46.236982449736 0 0 0
1511 12 2 0.0 24.27226500716687 21.348597996962585 -46.726783945122406 0 0 0
9991 75 1 0.0 30.51701345046511 0.654607231905398 -43.94374705144048 0 1 0
1377 11 2 0.0 25.169542429418723 9.495511559535183 -44.52125200348063 0 0 0
1378 11 17 0.0 26.722764324350667 12.768825776951667 -42.9169384222009 0 0 0
1379 11 2 0.0 28.797469327203615 14.830720105895129 -45.64620334489835 0 0 0
1380 11 17 0.0 31.083834009146486 17.48675374274922 -45.633159513139034 0 0 0
1238 10 2 0.0 27.61369591252291 20.752222504656302 -41.6202405698457 0 0 0
1239 10 2 0.0 23.972268695342077 20.20009284320668 -40.352450314755444 0 0 0
1402 11 9 0.0 30.112026963224206 22.065246627793442 -28.274658045378597 0 0 0
1401 11 2 0.0 32.44421744352954 19.395565252227893 -28.823091375616055 0 0 0
1233 10 2 0.0 28.981629140113373 8.01146910588561 -30.65362927484095 0 0 0
1400 11 2 0.0 33.780911559534275 16.087569604951966 -30.418790050342043 0 0 0
1223 10 12 0.0 28.83244806112074 4.2234266243774385 -36.21003124205726 0 0 0
1243 10 17 0.0 24.527340132049265 19.18812006716294 -31.967236867403898 0 0 0
1242 10 2 0.0 23.58640514555144 17.75144528312766 -35.457903549485465 0 0 0
1237 10 2 0.0 28.390629128473584 18.57371807937946 -38.213723234050384 0 0 0
1222 10 15 0.0 26.16466188143921 5.95437692705664 -34.370153527851755 0 0 0
1236 10 5 1.0 30.038358831370523 17.88986531451838 -34.780514883363615 0 0 0
1225 10 2 0.0 34.5726244271366 1.7207182857611483 -34.00186174333672 0 0 0
1224 10 5 1.0 32.33346876843676 3.015514015610632 -36.92084751032229 0 0 0
1245 10 17 0.0 25.03774613663465 13.377484806785223 -27.928870685516582 0 0 0
1221 10 15 0.0 23.22308608445094 4.837044350030681 -32.46589903345848 0 0 0
1235 10 2 0.0 28.702747598166514 14.476967405221213 -33.498758944940846 0 0 0
1244 10 2 0.0 23.249099355292312 16.557863043421243 -29.50824895367868 0 0 0
30 1 17 0.0 30.65413335011958 1.4883512092002271 -28.969056951806213 0 0 0
1231 10 17 0.0 32.842059719402386 10.716463217796987 -28.520472983063037 0 0 0
1229 10 15 0.0 33.42330481954074 11.121579212146598 -35.84356751605237 0 0 0
1516 12 14 0.0 33.3864508736175 22.371968643010902 -40.56792369432282 0 0 0
1234 10 2 0.0 28.346793051152368 10.38462755369606 -33.681278222919794 0 0 0
1230 10 2 0.0 34.12139997836922 10.306791007716537 -32.208783360042055 0 0 0
1226 10 5 1.0 36.749486299949275 4.578244195390506 -32.60971276051194 0 0 0
1517 12 2 0.0 35.898222704406365 22.043204342933866 -37.64854176235548 0 0 0
1524 12 2 0.0 39.56397377798055 20.1771267488219 -30.31948761042531 0 0 0
1523 12 15 0.0 42.732483720386064 22.207129673454954 -30.866488377877523 0 0 0
1228 10 2 0.0 36.50939156103806 9.567190342955035 -37.258437617137375 0 0 0
1399 11 2 0.0 37.5570051453328 15.991692138089249 -29.298288696844637 0 0 0
1392 11 2 0.0 40.09561490966681 7.326744503067898 -41.23196632982424 0 0 0
1396 11 15 0.0 44.910386458127405 14.242585351583312 -35.820771655469656 0 0 0
1393 11 14 0.0 42.5990099232952 9.214026799801042 -38.940010227188445 0 0 0
1391 11 2 0.0 36.98834189529198 8.34557915550523 -43.300330082205555 0 0 0
1518 12 5 1.0 39.06144395550534 23.295876526205966 -36.23365145480609 0 0 0
1520 12 2 0.0 44.94655151372278 21.243598121173328 -38.02989704811269 0 0 0
1227 10 15 0.0 37.60704500931124 6.287909502840368 -35.91051535569197 0 0 0
1387 11 14 0.0 39.17279416786498 19.060455407757487 -43.56560783397989 0 0 0
1398 11 2 0.0 38.94287609955264 14.800325983353114 -32.05635697376557 0 0 0
1388 11 15 0.0 37.65945032170387 16.695843429718373 -46.26553185126225 0 0 0
1397 11 5 1.0 41.39665920529674 15.37934990403472 -34.68191563290634 0 0 0
1390 11 5 1.0 36.511871806787084 9.429587438270731 -46.90642505568519 0 0 0
1389 11 2 0.0 37.27372262084703 12.972882371829744 -47.035774623851054 0 0 0
1386 11 17 0.0 41.065594022331396 22.86287966772593 -43.62329414197659 0 0 0
1353 11 15 0.0 18.05663213593818 23.98744909879969 -46.90303763556021 0 0 0
6349 48 6 0.0 22.199142955021582 41.49983245469472 -46.78757351443778 1 0 0
6350 48 15 0.0 21.537292994080904 40.902639789654685 -42.96001250245855 1 0 0
6351 48 15 0.0 18.766963858903456 37.81426116484436 -42.16737748439709 1 0 0
2480 19 2 0.0 3.00074707072834 32.492219702144936 -45.98224196463467 1 0 0
1351 11 1 0.0 22.415636069979534 27.471997776881462 -43.006599536107316 0 0 0
1364 11 15 0.0 10.238104261300535 25.836596842362038 -43.95724741327185 0 0 0
1363 11 2 0.0 8.201384281848222 28.902638344651724 -44.086230540744445 0 0 0
1362 11 15 0.0 5.446866543373731 27.318352740477852 -46.289914060250595 0 0 0
1352 11 6 0.0 20.588155277112016 24.32265945929135 -43.923017544810726 0 0 0
6354 48 5 1.0 12.0406798168654 45.18145524953281 -39.33691751686695 1 0 0
6353 48 12 0.0 14.89563193852892 43.1397086559888 -40.265109429635224 1 0 0
6352 48 15 0.0 15.600437737953122 39.48030529983295 -41.09518130232825 1 0 0
3809 29 2 0.0 3.0437324966736683 42.88270944322653 -30.11475269056657 1 0 0
2488 19 2 0.0 1.1170767775928048 26.492248924804883 -29.621246613014282 1 0 0
4228 32 14 0.0 16.09604953751699 30.513869534727263 -39.910920211359205 0 0 0
4227 32 2 0.0 16.495308556617477 31.589940682664153 -36.08881051647367 0 0 0
4226 32 2 0.0 15.572193366190172 34.347311412270734 -33.86288385062184 0 0 0
3805 29 14 0.0 5.085041763535492 42.34020509880141 -36.28327267885117 1 0 0
3804 29 2 0.0 6.682979502270658 42.71468556325667 -39.947898776438244 1 0 0
4232 32 5 1.0 19.4943994401313 26.049938748169122 -32.92842298407898 0 0 0
4223 32 15 0.0 20.324521418086928 42.69200271055174 -37.74097219467289 0 0 0
4231 32 15 0.0 17.508661155433188 24.95859069921185 -36.1149761313595 0 0 0
4230 32 2 0.0 17.787056440139075 24.362375470607144 -39.7498564352034 0 0 0
4220 32 2 0.0 20.798757747821202 39.37638585979166 -31.04109685065263 0 0 0
4229 32 2 0.0 14.74373001115623 26.843751613014113 -40.576792271078986 0 0 0
4233 32 2 0.0 19.87219033240654 27.984205367783186 -29.439343088531913 0 0 0
3806 29 2 0.0 2.20173878432544 40.883861420183514 -34.93895022976343 1 0 0
4224 32 2 0.0 19.51493229495872 38.99566548324127 -36.39575145509026 0 0 0
4225 32 5 1.0 16.007261121010565 38.038626098914136 -35.135421542220975 0 0 0
6653 50 15 0.0 0.6899188267091863 45.14324187252469 -46.76380452655692 0 0 0
4222 32 14 0.0 19.438206508382095 44.91378036527836 -34.723322288937716 0 0 0
4221 32 17 0.0 20.289248345212112 42.93659257056445 -31.467776339608896 0 0 0
3803 29 2 0.0 6.634841574545785 43.20347668583975 -43.6805268082288 1 0 0
3808 29 17 0.0 0.1224711754610326 40.986698521262355 -28.39905268587974 1 0 0
2487 19 2 0.0 2.3420889949408186 29.859443214114457 -31.19723254430268 1 0 0
2481 19 2 0.0 0.8155382443344483 29.33894480213735 -46.754856233435426 1 0 0
3802 29 2 0.0 8.800824942063866 41.35719297237526 -46.66224686488938 1 0 0
2479 19 2 0.0 0.2578917552062876 34.76699644706032 -45.962746957678284 1 0 0
2484 19 2 0.0 0.3461299646870373 23.371398150637315 -38.4324807865292 1 0 0
2483 19 2 0.0 0.27296665406083775 24.76427795194681 -42.07060297996929 1 0 0
1515 12 17 0.0 31.051188401578028 25.024042891472003 -41.604703070094956 0 0 0
1514 12 2 0.0 28.135139528880813 25.808876401201758 -43.63243326177107 0 0 0
3112 24 15 0.0 33.448807776983216 25.753412049169352 -32.87810600762226 0 0 0
3106 24 1 0.0 30.107723594418196 33.05448823430503 -34.51260511740425 0 0 0
3107 24 6 0.0 33.60256739300211 33.638696428001396 -32.62753965903585 0 0 0
3111 24 15 0.0 33.93822849318609 27.035847582118897 -36.30848249014462 0 0 0
4219 32 2 0.0 24.128264463268724 39.88049153056388 -29.152414857980887 0 0 0
4218 32 5 1.0 27.611157136210753 39.98549867753927 -29.584402581941774 0 0 0
4217 32 2 0.0 26.88708107801871 43.101633754334905 -27.758844402873603 0 0 0
12704 95 15 0.0 32.03988530206508 46.28508030567298 -42.6711188032985 0 1 0
1384 11 2 0.0 36.660192625524914 25.146292725993025 -44.124018641780566 0 0 0
3110 24 15 0.0 34.64071871192359 30.65429115546483 -37.489975131969935 0 0 0
3108 24 15 0.0 37.383322243820366 32.753816432887895 -33.110835547810325 0 0 0
3258 25 2 0.0 45.75933918484506 28.449883836067304 -35.333527749778135 0 0 0
3113 24 12 0.0 35.17823587960361 28.067686547449863 -30.803208505951716 0 0 0
3109 24 6 0.0 37.936883679049195 32.558557840961555 -36.52900080641323 0 0 0
1519 12 2 0.0 42.59628743657498 24.49363140616804 -37.25260720521836 0 0 0
1385 11 2 0.0 39.46147759301274 25.773989539285488 -41.99370028541277 0 0 0
6371 48 2 0.0 0.8079432280450263 53.48853759063602 -34.26812653515624 1 0 0
6356 48 5 1.0 8.821341895490269 50.45302572504629 -43.763673690726044 1 0 0
6355 48 2 0.0 10.420931955005656 46.706125224276896 -42.70410249294831 1 0 0
6365 48 2 0.0 11.42872626122141 51.41669557480333 -36.59481866738846 1 0 0
5452 41 9 0.0 22.907117441561937 68.80516778841474 -37.91017164063981 0 0 0
6368 48 2 0.0 9.751491787314555 52.81983453437087 -30.243504572837455 1 0 0
6360 48 2 0.0 13.394365937405118 57.36799076548208 -42.81324288505939 1 0 0
6369 48 2 0.0 7.255257321016188 54.19318490035555 -32.20932647111588 1 0 0
6359 48 15 0.0 13.878540982825777 56.371927558709075 -46.59919819366696 1 0 0
6367 48 2 0.0 9.138452983301546 49.7695562710899 -32.14083937751808 1 0 0
4208 32 2 0.0 22.179175871371537 48.17999862271051 -45.18680804106885 0 0 0
5165 39 2 0.0 8.743099871776801 66.87782335224827 -34.89478800780159 1 0 0
5164 39 2 0.0 9.1019969028526 68.5363539587707 -38.430420708170026 1 0 0
5166 39 17 0.0 5.042995902308765 65.4837319609005 -34.39447402407901 1 0 0
6658 50 14 0.0 2.5822199926448777 57.41012185604951 -44.46882962657783 0 0 0
6364 48 2 0.0 14.753311279819268 53.12723806641505 -37.26733751478337 1 0 0
5170 39 5 1.0 12.355385718617859 57.55400640384711 -28.470770184350076 1 0 0
5167 39 14 0.0 4.985434138233768 62.00669830650734 -33.06249708746077 1 0 0
5168 39 15 0.0 7.39067421163606 61.76928084809971 -30.01145471025084 1 0 0
5169 39 2 0.0 9.04577495067621 58.17289821559418 -30.05435732730719 1 0 0
6363 48 2 0.0 12.814377671769867 55.32912041979145 -34.62490538144387 1 0 0
4211 32 2 0.0 17.153643919070504 48.69548062464157 -39.01790056270313 0 0 0
6362 48 14 0.0 10.555883149552393 57.9278815924089 -35.97289775500041 1 0 0
6361 48 17 0.0 11.193777890531472 57.53452010215752 -39.722768137246234 1 0 0
4210 32 14 0.0 17.308259615551336 49.25422212373412 -42.600890311400754 0 0 0
4209 32 2 0.0 20.118690989924815 47.20126545469972 -42.22065709944774 0 0 0
4212 32 2 0.0 19.483790032685828 51.421017085514144 -37.43791704495466 0 0 0
4207 32 2 0.0 22.357250794576327 52.07035181752722 -45.639347719654985 0 0 0
6654 50 2 0.0 0.606210559476839 47.680260253000114 -44.13105539874577 0 0 0
6366 48 5 1.0 8.461408836174833 49.32241127740259 -35.880823217908535 1 0 0
6370 48 14 0.0 4.235445998934272 54.90917411643666 -34.373996353393714 1 0 0
3812 29 2 0.0 2.8023508022946437 53.090038497893644 -28.9152448197026 1 0 0
4213 32 17 0.0 22.632061403456884 50.21777048137874 -35.854573666917084 0 0 0
3811 29 14 0.0 4.085106852825441 49.55847319637809 -29.123304803275722 1 0 0
5451 41 2 0.0 20.435037391713365 67.286674865796 -40.34145583765077 0 0 0
5309 40 2 0.0 13.381288177696918 68.00842421611812 -33.58848363416269 0 0 0
3810 29 17 0.0 2.757868587560146 46.725605757623725 -31.11755859378895 1 0 0
6659 50 2 0.0 1.6027317908866878 55.65828390896025 -41.12789667349381 0 0 0
5308 40 14 0.0 15.193904210187869 69.67973946903295 -36.18482354791807 0 0 0
5450 41 2 0.0 20.344805460227658 69.37920281337215 -43.52557004202764 0 0 0
9876 74 5 1.0 31.568997048907914 66.43621458745665 -35.85839126097305 0 0 0
12700 95 2 0.0 33.46228626701159 51.54229771554071 -44.3021845476161 0 1 0
4214 32 2 0.0 25.634212706958984 48.14570541962981 -34.76320952577438 0 0 0
9877 74 2 0.0 33.29912827190133 64.97734898146099 -39.15685870961824 0 0 0
4216 32 14 0.0 27.57775510862724 46.949653848522814 -28.34051901402308 0 0 0
4215 32 17 0.0 25.212160228858625 48.283240236296635 -31.021665448142155 0 0 0
12701 95 5 1.0 29.78044035908134 52.0517352622271 -43.96104475843776 0 1 0
5453 41 2 0.0 23.217849600572052 68.65508010878237 -34.16264933490675 0 0 0
12703 95 2 0.0 28.1044903436023 47.04709900403324 -42.26997384004623 0 1 0
5454 41 2 0.0 24.589512586687395 65.32531928373356 -32.98628159375314 0 0 0
2840 22 15 0.0 32.465266184134336 65.91424532585897 -28.07429678383067 0 0 0
5456 41 2 0.0 27.293197395978375 63.34477927093355 -27.621960147604504 0 0 0
12702 95 15 0.0 27.849482089855762 49.58594529888422 -45.63414943874763 0 1 0
5455 41 15 0.0 27.50943909027079 63.625854986317094 -31.313745836020736 0 0 0
12705 95 2 0.0 33.09181108383639 46.65576947321292 -39.105481107259344 0 1 0
9875 74 2 0.0 33.51346503533263 69.63847285550905 -37.29992515245979 0 0 0
9879 74 2 0.0 37.95173602407178 66.97553369091193 -37.33329051397016 0 0 0
9887 74 2 0.0 45.36991434758591 66.95340366860755 -29.766224884853543 0 0 0
9878 74 2 0.0 36.60062805875704 63.37796205148997 -37.70571312744677 0 0 0
12714 95 2 0.0 45.809998436339036 48.69933668620973 -30.380676945853985 0 1 0
2836 22 1 0.0 39.028699270626916 57.551160968355575 -33.44825764575556 0 0 0
9884 74 2 0.0 43.968567263957105 59.28674411085554 -30.821820618562782 0 0 0
2837 22 6 0.0 38.89221264370223 60.19797342633968 -30.51414349341537 0 0 0
9882 74 2 0.0 42.8571536428127 60.86844462265449 -37.48303234231178 0 0 0
9883 74 17 0.0 44.97196605273233 60.63018984124277 -34.1846414432433 0 0 0
12709 95 2 0.0 43.092786265331156 53.676589231870516 -39.20066719296965 0 1 0
7030 53 2 0.0 44.56658281601144 68.9503856062674 -40.55946137737018 0 0 0
7029 53 5 1.0 42.19233267290707 66.07027788217619 -42.23683306069397 0 0 0
9880 74 14 0.0 40.42703894084957 67.03743482515166 -34.20297258253165 0 0 0
9881 74 2 0.0 41.486019459613786 64.16900894419247 -36.406180502704295 0 0 0
12708 95 2 0.0 41.252201916806854 52.049630895230166 -36.454520822395814 0 1 0
12706 95 17 0.0 36.892057315455844 47.96680751462314 -39.2225986790843 0 1 0
12707 95 14 0.0 38.27030798839695 49.37681712116563 -36.09807377142155 0 1 0
7028 53 12 0.0 40.45982090078563 64.31292957808243 -45.01234255805791 0 0 0
12699 95 5 1.0 35.91045888668012 49.93634031541936 -47.04003242432371 0 1 0
7027 53 15 0.0 42.851176503354914 61.87276456782438 -46.506624671482086 0 0 0
3685 28 5 1.0 3.137278347911325 0.4562551175073267 -9.158744871145148 1 0 0
3684 28 2 0.0 5.175344177684154 0.5042498857287423 -12.258339916568472 1 0 0
3687 28 2 0.0 7.746587489172284 3.770575181587317 -8.731066098156676 1 0 0
1217 10 6 0.0 22.09387868655095 1.6640011119088665 -24.857855190744814 0 0 0
1218 10 15 0.0 20.558588185977165 4.591782544498998 -23.690083012887804 0 0 0
3681 28 17 0.0 10.625375583580913 3.5895359696303184 -17.332180636513726 1 0 0
1255 10 5 1.0 18.608516654919324 15.621494674727014 -16.171918483588147 0 0 0
1256 10 2 0.0 15.642509184290565 17.294925831470778 -15.50305045189188 0 0 0
1257 10 2 0.0 13.553341960724024 20.367234964105418 -15.264680286610847 0 0 0
987 8 2 0.0 3.9023357915755246 6.42297736783675 -12.960665578375957 1 0 0
3677 28 2 0.0 9.04815526408936 9.05060017632485 -25.64251809283929 1 0 0
3679 28 2 0.0 15.076250629582931 8.4275769788211 -21.024716184221447 1 0 0
3671 28 2 0.0 17.131328808991952 13.051862716245038 -26.854538238548834 1 0 0
3669 28 2 0.0 12.776079809700821 14.880321010516406 -26.559399741854754 1 0 0
3678 28 5 1.0 12.758456411687177 9.437251606036806 -23.919294677587885 1 0 0
1412 11 14 0.0 10.562728347851658 11.983446026055775 -17.41316758029424 0 0 0
1414 11 17 0.0 14.517080068503601 11.795568066186345 -12.363033065594909 0 0 0
1413 11 2 0.0 11.733623354322454 10.24208691845566 -14.475511093230043 0 0 0
1219 10 6 0.0 22.472880439109783 7.058033894316602 -26.09677338007983 0 0 0
1254 10 2 0.0 16.950399768530982 14.03722646348875 -19.027195042091336 0 0 0
1253 10 15 0.0 19.147748186598694 13.00139412557374 -21.95907757412509 0 0 0
1405 11 15 0.0 20.334242545373428 20.926859460541262 -26.49503193099087 0 0 0
1252 10 14 0.0 22.674628615965442 12.831645408799135 -21.744513269756954 0 0 0
3680 28 2 0.0 12.459495569226082 6.711855292382813 -18.63737674874204 1 0 0
1410 11 17 0.0 12.969375541973859 16.224220375715902 -21.585454072130908 0 0 0
1411 11 2 0.0 11.46927830838176 15.61301090618987 -18.1624762598309 0 0 0
986 8 2 0.0 0.8380985015052336 5.403541422701102 -11.325297274052327 1 0 0
1408 11 2 0.0 14.693994530689256 21.199204906957554 -25.944663290107382 0 0 0
1409 11 9 0.0 14.184996456753927 19.620040942433185 -22.684779556388975 0 0 0
989 8 2 0.0 6.219578005953748 11.873663419584526 -10.174589327954513 1 0 0
3688 28 14 0.0 11.519557535242475 3.757953288454364 -9.918661464219005 1 0 0
1260 10 2 0.0 6.2770224845232 22.33278458800163 -18.01266291856272 0 0 0
988 8 14 0.0 4.225924811531205 10.147481216825724 -12.950713675812596 1 0 0
1417 11 15 0.0 20.2708188741469 11.00620739347696 -9.91819370041763 0 0 0
1415 11 15 0.0 15.726307524005371 14.155833104394999 -9.307670978193414 0 0 0
1251 10 17 0.0 22.640433048687438 8.904659894294621 -20.605218413479513 0 0 0
1422 11 2 0.0 20.32446174652915 4.597945328271019 -11.691754464582376 0 0 0
3689 28 2 0.0 13.803863315545561 0.9011061502636731 -8.8798374740106 1 0 0
1263 10 2 0.0 6.103491126430301 17.32551336858553 -9.946616071664058 0 0 0
1262 10 5 1.0 5.340395368899439 17.076470635457735 -13.457564953522128 0 0 0
1264 10 2 0.0 7.7623748597271005 20.219525935034685 -8.612071909127275 0 0 0
1261 10 15 0.0 6.04795096306607 18.95052797339295 -16.282511777425956 0 0 0
35 1 2 0.0 29.56141107768342 0.4383240170359926 -12.96246281487854 0 0 0
4255 32 2 0.0 29.059999508050243 21.49047659679525 -10.211032622262216 0 0 0
31 1 14 0.0 29.46727180227898 0.8054186490570023 -25.594815600848033 0 0 0
32 1 2 0.0 28.441493709871146 1.2152269554304151 -22.125914959707845 0 0 0
1420 11 2 0.0 26.851760413388995 7.237721504274588 -13.775777085472846 0 0 0
1419 11 14 0.0 27.265749442791552 9.985361367690883 -11.168445414931094 0 0 0
33 1 5 1.0 26.330067363520104 2.924431365626268 -18.929504964248856 0 0 0
1246 10 14 0.0 28.327448474671783 15.25013865724918 -27.143552479925088 0 0 0
1247 10 2 0.0 28.69206702304642 13.896921145336352 -23.539377103192976 0 0 0
1418 11 17 0.0 24.096509116621974 10.900795167190376 -9.338171420082556 0 0 0
39 1 2 0.0 33.861849701427126 9.93844526311008 -9.187699984608278 0 0 0
1404 11 2 0.0 23.914721863830785 22.3848898862275 -26.083981489877345 0 0 0
1403 11 2 0.0 27.666434869933287 22.971151918860343 -25.580590143160308 0 0 0