LAMMPS data file via write_data, version 29 Oct 2020, timestep = 100000

13500 atoms
40 atom types
13400 bonds
1 bond types

0.0 140.0 xlo xhi
0.0 140.0 ylo yhi
-360.0 360.0 zlo zhi

Masses

1 131.199997
2 57.0499992
3 128.199997
4 101.0999999
5 156.1999999
6 71.08000180000001
7 115.099998
8 129.100006
9 163.1999999
10 99.0699997
11 113.199997
12 128.100006
13 186.199997
14 147.199997
15 87.080001
16 137.100006
17 114.099998
18 97.1200027
19 103.099998
20 113.199997
21 131.199997
22 57.0499992
23 128.199997
24 101.099998
25 156.199997
26 71.08000180000001
27 115.099998
28 129.100006
29 163.199997
30 99.0699997
31 113.199997
32 128.100006
33 186.199997
34 147.199997
35 87.08000180000001
36 137.100006
37 114.099998
38 97.1200027
39 103.099998
40 113.199997

Bond Coeffs # harmonic

1 9.6 3.81

Atoms # full

2704 21 6 0.0 40.11386310501823 62.48293499222776 -89.00804944201397 0 0 0
2701 21 1 0.0 44.68450510349906 57.046312156079104 -90.39504737924129 0 0 0
2703 21 15 0.0 43.69255427665384 62.69638063513459 -88.00769071092691 0 0 0
12167 91 14 0.0 17.835517687186538 5.883546812624532 -69.02745488081915 0 1 0
12165 91 2 0.0 22.266782516337642 8.568114830320347 -71.72856742493573 0 1 0
12166 91 17 0.0 18.535590711520523 8.690695984703009 -71.28895828895566 0 1 0
12163 91 2 0.0 20.595698364662002 3.209359710717808 -73.50729307563465 0 1 0
12162 91 15 0.0 22.044403418646283 0.6349120778379689 -70.63933825249394 0 1 0
12168 91 2 0.0 15.522469876077146 2.861557703316026 -69.13259181429635 0 1 0
12164 91 15 0.0 23.00656120517286 5.831422785571917 -74.07771484786873 0 1 0
4051 31 1 0.0 22.30572212710486 32.14033454527551 -74.10518521482074 0 0 0
3647 28 6 0.0 41.22275909935305 38.02873863442535 -78.98721251041174 1 0 0
3648 28 15 0.0 41.07273238201287 36.464038721759486 -75.37679090652823 1 0 0
3649 28 6 0.0 39.027069354745855 38.23827327693733 -73.09590639575576 1 0 0
3650 28 15 0.0 38.34078130503795 41.76717509777447 -72.23644683614057 1 0 0
3651 28 15 0.0 39.309498015005744 45.359802004173545 -71.00680156365814 1 0 0
4054 31 6 0.0 30.22556007496646 31.600208647329676 -68.6224379957247 0 0 0
4052 31 6 0.0 25.37838296003511 29.899451010708297 -74.13709462414633 0 0 0
4053 31 15 0.0 28.140218022588172 29.46605169500104 -71.08641021382464 0 0 0
3646 28 1 0.0 38.15172913891662 40.08414518752677 -79.27437873135959 1 0 0
2712 21 15 0.0 21.85744367436321 62.601381977524 -80.41559530342977 0 0 0
2713 21 2 0.0 21.5945341002937 62.64364272330034 -76.76523015388109 0 0 0
2709 21 5 1.0 28.79386887559533 67.72338736894127 -83.98946494486589 0 0 0
2710 21 7 -1.0 26.817876321768694 65.1105984604642 -83.02222755022744 0 0 0
2711 21 5 1.0 25.143957226572482 61.97533742185538 -81.83267666918536 0 0 0
2707 21 15 0.0 36.18157606189548 68.25345375829666 -83.25262425464138 0 0 0
2708 21 12 0.0 32.51576773003331 68.55635955408104 -83.95390935921085 0 0 0
2706 21 15 0.0 37.976242325925696 64.4951045272215 -83.1116413470189 0 0 0
3652 28 15 0.0 37.63441310049255 48.26225464034284 -69.31023572825006 1 0 0
2714 21 15 0.0 24.72567036401967 64.22787865998141 -76.15856400543356 0 0 0
3653 28 12 0.0 34.79684586356249 49.23139062663307 -67.02593619018424 1 0 0
2715 21 2 0.0 28.175862926267882 63.53950084191976 -75.01723244624009 0 0 0
2719 21 2 0.0 38.17622177997254 59.165042709307414 -66.79181512369294 0 0 0
2716 21 17 0.0 29.152170690584228 62.992603516916155 -71.46384436854353 0 0 0
2717 21 14 0.0 32.145753614113666 62.92441655193789 -69.26473145579374 0 0 0
2718 21 2 0.0 35.43496723301665 61.078393506460436 -68.2253005153304 0 0 0
9181 69 1 0.0 22.861941901040584 70.30221874657232 -75.24757329905118 1 0 0
2705 21 15 0.0 38.639802187533185 61.7853296510399 -85.81717266158043 0 0 0
12170 91 2 0.0 16.944511571358763 3.796615196114399 -63.77116651837997 0 1 0
5005 38 7 -1.0 9.324804557147054 20.374317156891518 -61.78473728622078 1 0 0
5007 38 15 0.0 2.065075595888696 21.87067333112021 -63.16092918247342 1 0 0
5006 38 5 1.0 5.70618996990228 20.514568795980054 -63.193860066938505 1 0 0
5004 38 5 1.0 12.248429084344577 22.233032460831 -60.29294701313385 1 0 0
5003 38 12 0.0 14.246951361766659 22.082315243934676 -56.75099987185845 1 0 0
12176 91 2 0.0 6.956378475545721 7.31012340149688 -57.17669486488358 0 1 0
5014 38 2 0.0 3.482226184531321 17.9715090032865 -56.130458489930106 1 0 0
5015 38 2 0.0 5.9085335490373945 15.161904950290223 -55.16120800067326 1 0 0
12178 91 17 0.0 2.677034478061113 3.430047400845451 -56.16413973189325 0 1 0
12177 91 2 0.0 3.3883289434370534 6.514659388112749 -58.03331674765011 0 1 0
12175 91 14 0.0 8.874474219771917 10.280719287020446 -58.48653871638856 0 1 0
5002 38 15 0.0 13.021248384770667 19.79886959818452 -53.74577237957659 1 0 0
5013 38 2 0.0 5.973894664468444 20.76265587048792 -56.91437331926717 1 0 0
12172 91 2 0.0 13.901636629691488 9.104126118552912 -61.61068125089779 0 1 0
12174 91 2 0.0 7.708545063877961 12.623164868168411 -61.71977825306005 0 1 0
12171 91 5 1.0 15.06474768392371 5.808806742786802 -61.38973028421887 0 1 0
12173 91 2 0.0 11.327896585207178 11.577941834650154 -63.261970702460225 0 1 0
5000 38 15 0.0 15.73920584240975 15.979386724752457 -56.323641323507076 1 0 0
5001 38 15 0.0 13.5369037266529 15.833546890813457 -52.94468162916183 1 0 0
4999 38 6 0.0 14.133355985196559 13.261541398279743 -58.03501375938968 1 0 0
4998 38 15 0.0 16.44744147745662 10.44101507648098 -56.896269986473655 1 0 0
4997 38 6 0.0 20.352222571059347 9.855898963234534 -56.19283477996553 1 0 0
12169 91 2 0.0 14.209680488583688 2.0183691984336174 -65.63113527786867 0 1 0
5018 38 2 0.0 10.604800571178352 14.71414399317263 -47.02508320067967 1 0 0
5016 38 5 1.0 7.151463100843563 15.309993013072837 -52.05001157226782 1 0 0
5017 38 2 0.0 9.822431267588257 16.79826258900644 -50.04948961738497 1 0 0
3811 29 14 0.0 5.082431507239423 22.087324196770318 -47.14822994780846 1 0 0
12180 91 17 0.0 6.648441307630686 2.224199133933639 -60.47626078317358 0 1 0
12179 91 7 -1.0 3.0247860978915457 1.3276961049649811 -59.27112856843665 0 1 0
3810 29 17 0.0 3.0407840270842343 19.8332103117105 -48.894884837073434 1 0 0
4996 38 1 0.0 23.723551726958405 10.027863867124944 -57.62975607974558 1 0 0
5008 38 2 0.0 0.5967019811009345 25.53385162588389 -64.08481981104147 1 0 0
5012 38 14 0.0 4.370363021973094 24.16295563166548 -56.83336850675196 1 0 0
5011 38 17 0.0 7.407400487858762 26.307031765543183 -57.52539296971869 1 0 0
5010 38 2 0.0 7.144876420970105 26.80619331780479 -61.382549480141066 1 0 0
5009 38 15 0.0 4.323059509970975 27.100817060263765 -64.07053422296488 1 0 0
3667 28 2 0.0 7.256657924650182 46.44243795496614 -59.08132707122613 1 0 0
3668 28 2 0.0 7.276122818446206 46.71847086967614 -55.00908617327889 1 0 0
1352 11 6 0.0 18.93408945344139 40.162198076147746 -47.24600636631499 0 0 0
1351 11 1 0.0 15.325348657497704 40.09683528352935 -48.104953386360066 0 0 0
3800 29 2 0.0 1.9241706871229804 29.17086171475986 -58.78991549666887 1 0 0
6353 48 12 0.0 3.5380447178910415 41.92563538843519 -50.092307901431596 1 0 0
3802 29 2 0.0 3.2286892943605614 28.695802951996804 -51.81559933515243 1 0 0
6351 48 15 0.0 0.940031666291141 44.80749887921483 -55.93020971835148 1 0 0
6352 48 15 0.0 2.4811010109025156 42.06755839761057 -53.590014074266655 1 0 0
3803 29 2 0.0 1.7018236934682014 25.24329726769057 -51.91536700736044 1 0 0
3801 29 5 1.0 2.770714954022166 30.646760393503346 -55.20513866992639 1 0 0
1355 11 15 0.0 27.56404116278246 41.350055002308444 -50.70689072063565 0 0 0
4055 31 15 0.0 33.52649805051962 30.698462443392643 -66.20730902682239 0 0 0
4056 31 15 0.0 34.39863408214106 30.910663028543123 -62.41453741982692 0 0 0
4057 31 15 0.0 37.62206702684783 29.928426905378952 -61.74314787000712 0 0 0
4058 31 12 0.0 39.61504227973379 32.530428169234725 -59.87594862736975 0 0 0
4059 31 5 1.0 37.25661919238086 33.846166895318824 -56.95826534684272 0 0 0
4060 31 7 -1.0 36.6923369174618 34.28788930601593 -53.404412035520146 0 0 0
4061 31 5 1.0 36.022437609123266 36.61321109721973 -50.40267548229406 0 0 0
1354 11 6 0.0 23.62965090870868 41.118597856950146 -49.40401473573732 0 0 0
1358 11 12 0.0 23.353290134842574 34.732224821519 -47.25293502946722 0 0 0
1356 11 15 0.0 26.607151111905416 38.49144565624722 -52.911742556102965 0 0 0
1357 11 15 0.0 25.654940715335467 35.89833471039688 -50.17134627898455 0 0 0
136 2 1 0.0 41.85490290522951 40.22752938259334 -63.468931109828716 0 0 0
137 2 6 0.0 43.82440628423328 39.53287749653892 -60.47167391161707 0 0 0
142 2 15 0.0 44.48218778779193 31.78064294570043 -49.983303160379926 0 0 0
3669 28 2 0.0 3.869972211660616 48.89078623961781 -54.529501687688196 1 0 0
3666 28 5 1.0 4.304093942252422 48.37768309364378 -60.71135531469652 1 0 0
3671 28 2 0.0 5.078171985824339 53.247530212673134 -51.08856578538218 1 0 0
3663 28 2 0.0 7.902224016521648 56.706657035344215 -56.49979008527833 1 0 0
9330 70 2 0.0 4.204568455126514 61.91399388680657 -48.319935150427995 0 0 0
9331 70 17 0.0 7.826353395627062 62.67251340013978 -49.60666923702197 0 0 0
3664 28 2 0.0 4.697820356704528 54.524345847811894 -56.227372818579504 1 0 0
9332 70 14 0.0 10.59876112526338 60.21454633284564 -49.26434425142947 0 0 0
9333 70 2 0.0 13.512346058141182 58.37513994959262 -47.45253490782297 0 0 0
3662 28 14 0.0 10.256529382552056 54.15092429574129 -54.51934843597705 1 0 0
3665 28 2 0.0 4.565646552595754 51.18357752476295 -58.26652359712836 1 0 0
9334 70 2 0.0 15.969387671223458 61.06973094786461 -48.2407550231898 0 0 0
3670 28 14 0.0 2.0208085312565793 51.22097856203686 -52.583425073050186 1 0 0
4092 31 7 -1.0 12.991737305877088 53.06818188905924 -48.209860399877854 0 0 0
3661 28 17 0.0 12.83342738358062 52.690968929597204 -56.44093781122526 1 0 0
3658 28 2 0.0 20.573638052632568 52.64981311341697 -60.0934215304793 1 0 0
3659 28 15 0.0 19.619915328801223 55.2415393402588 -57.246235833777405 1 0 0
3660 28 2 0.0 16.11534117391395 54.73388764812318 -55.66139860184725 1 0 0
3672 28 2 0.0 3.447585665567872 55.030003908581264 -48.335762914194135 1 0 0
9329 70 15 0.0 2.567917283429465 62.906101275909364 -51.74441182946422 0 0 0
5266 40 1 0.0 23.73170775662475 71.16207788274653 -61.24981888858923 0 0 0
3654 28 5 1.0 31.47114556314141 50.41835918738575 -65.11253627625406 1 0 0
3655 28 7 -1.0 29.810115666381794 50.12851876501604 -61.70211225735238 1 0 0
3656 28 5 1.0 27.73125785391349 51.42292651621341 -58.81835259971852 1 0 0
3657 28 15 0.0 24.538745550704963 53.05348067868118 -59.62736044745851 1 0 0
5413 41 2 0.0 41.36741251081717 65.6992903799608 -54.59767602073871 0 0 0
2727 21 2 0.0 27.059841456763955 61.82177769123848 -50.39761332109286 0 0 0
5414 41 15 0.0 40.490131064460506 64.5272063452872 -57.716475168848135 0 0 0
2721 21 5 1.0 39.03984506220285 58.81878618939953 -59.92333648699454 0 0 0
2722 21 2 0.0 36.33581124434575 59.21952683030298 -57.508279273875345 0 0 0
2720 21 2 0.0 37.229842372681134 57.150692791219406 -63.11062341145712 0 0 0
5415 41 2 0.0 38.621063598233704 68.00597105998547 -58.38155510039537 0 0 0
2723 21 2 0.0 33.9948102373208 62.07161796444956 -58.57147010424645 0 0 0
2728 21 17 0.0 25.52228138874395 58.956633330654455 -48.072271537778214 0 0 0
2725 21 14 0.0 32.84314085441431 59.87332405772356 -53.14911780167684 0 0 0
2724 21 2 0.0 31.516476715363694 62.2940259918183 -55.4198458562224 0 0 0
2726 21 2 0.0 30.645142496860522 61.02115233958718 -50.75252287753874 0 0 0
5412 41 15 0.0 43.84198378110022 68.69663711840158 -54.29590972910918 0 0 0
5020 38 14 0.0 7.611379845349635 11.506914956412743 -43.65987849797779 1 0 0
5019 38 2 0.0 11.259890310727211 12.46956643127694 -44.10008739546734 1 0 0
5021 38 2 0.0 5.367195902424604 11.971536100161451 -40.69907960345545 1 0 0
5022 38 2 0.0 3.6927675924542807 8.52654801370731 -40.23476291903109 1 0 0
2 1 6 0.0 6.279157195820487 3.4543514932887924 -36.505722145891326 0 0 0
1 1 1 0.0 8.241982798027658 6.375689813610096 -37.97720387423547 0 0 0
3 1 15 0.0 3.3331868006007896 5.045266327985486 -34.71195956498321 0 0 0
4 1 6 0.0 2.6352797389730553 6.954502459875972 -31.523303933458806 0 0 0
3821 29 2 0.0 16.4520718966659 20.119190749111677 -38.31078929675588 1 0 0
3819 29 2 0.0 11.420767131527672 21.556782786603332 -36.59898035262969 1 0 0
3817 29 14 0.0 10.890070693505798 22.589417288365066 -42.026161830820165 1 0 0
3818 29 15 0.0 8.934701461257113 21.508718254203984 -39.320499628682974 1 0 0
2483 19 2 0.0 16.643904307091166 3.8249687753028296 -31.439608230691615 1 0 0
2463 19 5 1.0 7.376020484839929 1.939518599480039 -30.432332020864767 1 0 0
3820 29 5 1.0 13.774246896547094 18.59698145964015 -36.09527936176437 1 0 0
3707 28 14 0.0 2.8896839114987363 17.31597557760829 -41.32613733051984 1 0 0
3706 28 2 0.0 0.982989999031241 19.938848976967947 -39.61247053637657 1 0 0
3833 29 2 0.0 20.78711949247384 22.70263465600535 -29.186226647669482 1 0 0
2478 19 2 0.0 21.74219415586871 5.153448469990295 -29.260607231088027 1 0 0
3705 28 17 0.0 1.2307745145964974 23.489739385110948 -40.8083398795406 1 0 0
3711 28 2 0.0 0.49767449561501054 17.207788523503673 -31.031793540772206 1 0 0
2464 19 2 0.0 9.20456804192203 3.0426798745812187 -27.69278646517092 1 0 0
5 1 15 0.0 5.0827538498270375 9.771198851934852 -30.937943458586208 0 0 0
2484 19 2 0.0 15.597397799642957 5.251074296009516 -28.09386920241726 1 0 0
2482 19 9 0.0 14.089534193321416 4.092485082037143 -33.96672578693669 1 0 0
6 1 15 0.0 8.858882253743037 9.367561660181593 -31.922784410570916 0 0 0
7 1 15 0.0 10.055558163781233 9.357204609584578 -28.52843313194838 0 0 0
3834 29 2 0.0 17.527851606545088 20.79694045770582 -30.458520791396186 1 0 0
3835 29 15 0.0 14.28989183586015 22.693630522731883 -30.650320328228325 1 0 0
3836 29 2 0.0 11.021072843317933 21.251473270865723 -29.554429981935996 1 0 0
13366 100 1 0.0 12.897282854304267 0.03382971653714845 -39.46248122974545 0 1 0
2480 19 2 0.0 20.117687954507726 6.294373513675086 -35.19368135298612 1 0 0
2465 19 2 0.0 12.671630069576842 1.5969683991415506 -28.143269362138494 1 0 0
2481 19 2 0.0 16.982819927463893 4.102610780813276 -36.39939413222787 1 0 0
2479 19 2 0.0 21.475447825641908 3.8112013074734654 -32.67050804132201 1 0 0
13367 100 6 0.0 16.199140342207198 0.6882380570014137 -41.2238503036571 0 1 0
5023 38 17 0.0 0.06720020332983268 9.292749343245609 -39.24684838740556 1 0 0
297 3 2 0.0 40.88846437120043 13.994135385508828 -41.64340011214249 0 0 0
298 3 17 0.0 43.71484338735102 16.10077198910785 -40.12887578028437 0 0 0
3829 29 2 0.0 31.94036066881501 23.133996253486337 -36.116908222594574 1 0 0
3830 29 2 0.0 29.637181160176215 22.76539846480082 -32.98894159623565 1 0 0
3831 29 2 0.0 26.73987690643218 23.554926179838894 -30.895970389261684 1 0 0
294 3 2 0.0 34.15101727417516 7.434522771515222 -42.75499738465251 0 0 0
293 3 2 0.0 33.86372238892748 3.856216536090219 -42.30842409189955 0 0 0
295 3 14 0.0 37.63392219729142 9.41868833384464 -43.056899994925416 0 0 0
296 3 2 0.0 37.484403784811555 12.701394875159677 -41.54262584265465 0 0 0
292 3 2 0.0 34.12202715481395 3.9761211940494623 -38.57051472313601 0 0 0
289 3 2 0.0 40.24517920519963 1.3640522100182653 -36.09789202865633 0 0 0
149 2 15 0.0 39.49540614117141 23.144174834950803 -36.12869042775258 0 0 0
148 2 2 0.0 36.328190082025756 23.67279065300066 -38.10398846229281 0 0 0
299 3 7 -1.0 42.30393631482445 17.34314550962357 -37.004610779858865 0 0 0
3832 29 9 0.0 23.25240777064424 22.473044685834104 -32.013293594035666 1 0 0
290 3 2 0.0 38.93016609066035 4.228511351026504 -38.38210365358465 0 0 0
151 2 17 0.0 36.44934894615186 22.24273673189745 -31.01873707280597 0 0 0
153 2 2 0.0 32.13883708178163 20.69472948053371 -28.150495455068576 0 0 0
291 3 5 1.0 36.3465858039505 6.217082704120258 -37.053950973103504 0 0 0
300 3 17 0.0 44.40935253676453 15.645842873642671 -34.17870050325022 0 0 0
301 3 14 0.0 44.27508630119725 16.246615573875275 -30.450621997456047 0 0 0
3823 29 14 0.0 20.28705842862882 26.827127515790323 -38.72367827416213 1 0 0
3822 29 7 -1.0 17.654092894282403 23.786028276903092 -39.207902001950444 1 0 0
5038 38 14 0.0 6.850155594559994 37.17991275376129 -39.974403030035724 1 0 0
3813 29 5 1.0 5.734369337046661 29.178099075290138 -44.35087297152825 1 0 0
3812 29 2 0.0 5.531960414618133 25.183461834580772 -44.59086422926558 1 0 0
3814 29 2 0.0 9.380092756476985 28.489714669884535 -44.321775662334446 1 0 0
3815 29 2 0.0 12.374357934330554 27.626194320358277 -46.210389168005705 1 0 0
3816 29 17 0.0 12.434165207977818 23.856954600944434 -45.42041569436958 1 0 0
5040 38 2 0.0 7.417343574457829 42.95620612731337 -37.13433499538817 1 0 0
5041 38 15 0.0 5.958085125140838 42.418329835736614 -33.62324600609939 1 0 0
5042 38 5 1.0 7.308191116959148 38.72897714733761 -32.69887239369754 1 0 0
5039 38 2 0.0 7.316727883274293 41.215539006480995 -40.36348482774981 1 0 0
4087 31 14 0.0 12.137409390608882 46.91839115604639 -36.1588542765383 0 0 0
4084 31 2 0.0 16.74064232576143 47.223215773156426 -31.717123611124972 0 0 0
4083 31 5 1.0 18.9233929736397 44.841080162822834 -33.14102598064305 0 0 0
4082 31 2 0.0 20.592854769126145 47.212762850516164 -35.69946002908693 0 0 0
1359 11 5 1.0 22.01857186899969 32.65115757950968 -43.88634300418796 0 0 0
1360 11 7 -1.0 22.247159705766602 34.089813609356554 -40.66199498837516 0 0 0
5036 38 2 0.0 0.9144466958212563 35.32662059167941 -40.83125230789783 1 0 0
6354 48 5 1.0 1.5081694354701318 42.1928591929539 -46.76284855212452 1 0 0
5037 38 7 -1.0 3.417656971781831 37.740457152603355 -41.99002837002076 1 0 0
5050 38 15 0.0 0.9740872546184529 27.814833305386472 -31.52088844605549 1 0 0
5048 38 2 0.0 5.572402489328741 23.833247064942345 -33.15446103823589 1 0 0
5047 38 9 0.0 4.914433560232009 26.027444946387888 -36.10420099589409 1 0 0
5046 38 2 0.0 5.559801104336728 29.57308311029303 -37.95811116723212 1 0 0
5043 38 2 0.0 9.936393962378878 36.192672544440896 -34.69195553510429 1 0 0
5049 38 2 0.0 3.6689232392714084 25.50767534847912 -30.470757474312514 1 0 0
5045 38 2 0.0 8.991479103882327 30.506466549368913 -39.20959551500789 1 0 0
5044 38 2 0.0 9.847149871655127 32.507528656787926 -36.146238795230865 1 0 0
5051 38 2 0.0 2.940367315130859 31.291842184495295 -31.700889327980256 1 0 0
5052 38 7 -1.0 1.8298346431652455 35.09341632979474 -31.165819236092855 1 0 0
1353 11 15 0.0 22.68632967096463 40.606523509139414 -45.94169500199271 0 0 0
4062 31 15 0.0 33.69033015611201 36.692095466820376 -46.93546183650543 0 0 0
3824 29 2 0.0 23.051821136169973 27.164676028548506 -41.78146477337718 1 0 0
3826 29 15 0.0 27.238859996566642 27.054792501816284 -39.48973120686533 1 0 0
3825 29 2 0.0 26.21928831899356 25.904250664054704 -42.88819475671567 1 0 0
3827 29 5 1.0 29.96127818985326 28.671412498056878 -37.900071851259455 1 0 0
3828 29 2 0.0 32.61055397406084 27.00889449615026 -35.35823309893937 1 0 0
146 2 5 1.0 40.302530553541956 29.070993841706187 -38.35467651020442 0 0 0
150 2 2 0.0 39.5571294333511 24.47779755114453 -32.13060921679551 0 0 0
4069 31 2 0.0 40.81977662195504 41.46912644266562 -39.02146892527899 0 0 0
1361 11 5 1.0 24.39156529716186 34.465679632614844 -37.52534849316938 0 0 0
1363 11 2 0.0 29.20441378493001 38.894386726339654 -36.642135446410585 0 0 0
1362 11 15 0.0 25.63578709672544 37.954095334533484 -37.22279481951941 0 0 0
1364 11 15 0.0 32.35308441917556 38.97487038445898 -38.39265277927264 0 0 0
1365 11 2 0.0 34.693743877445954 38.31057462653033 -35.53561914637951 0 0 0
147 2 15 0.0 36.686359521184556 27.374558915342266 -38.52370601611889 0 0 0
4063 31 2 0.0 34.67619834360752 34.97915319832061 -43.420683390251305 0 0 0
4064 31 15 0.0 36.68223534972029 37.823249828933854 -42.62217981342958 0 0 0
4065 31 2 0.0 40.70195701445835 37.11972499530395 -42.573519998560336 0 0 0
1366 11 17 0.0 36.20832919169319 38.98499000559393 -32.29012452736784 0 0 0
1368 11 2 0.0 32.020776932258826 39.388126566198274 -28.102296894010443 0 0 0
1367 11 14 0.0 35.56944772884903 39.53116505806403 -28.615183740415713 0 0 0
4072 31 2 0.0 35.39662878115618 46.188632118771956 -39.83939774645854 0 0 0
310 3 5 1.0 40.08091205294627 30.422282018721965 -32.09844396001836 0 0 0
4071 31 5 1.0 36.55059823030511 45.331709660889366 -43.34407944452899 0 0 0
4070 31 2 0.0 39.9290312678144 42.643753366031085 -42.9685382407795 0 0 0
4073 31 2 0.0 36.65311303951909 43.87031576959882 -37.077560221536295 0 0 0
311 3 2 0.0 39.600767066833356 29.5663028737003 -28.31576019647009 0 0 0
4080 31 17 0.0 25.810494366435393 44.5419238428734 -36.652514694311876 0 0 0
4079 31 7 -1.0 29.46868678740278 44.342633225140034 -35.48400884443292 0 0 0
4078 31 17 0.0 31.3767884676146 43.069312009488605 -32.62953925661064 0 0 0
4077 31 2 0.0 33.41104014328605 46.43467952783533 -31.765184871891194 0 0 0
4075 31 14 0.0 39.288543272940466 46.31867518873705 -30.575740414342253 0 0 0
4074 31 2 0.0 37.87516652460593 45.409394191009206 -33.675855220861045 0 0 0
145 2 7 -1.0 42.4691220353264 31.50615122893982 -40.078238304357825 0 0 0
152 2 14 0.0 33.58782156410406 24.18450187302922 -29.096158694970615 0 0 0
309 3 2 0.0 43.558599533741145 29.00040869336017 -32.1938418947896 0 0 0
2588 20 2 0.0 27.20601827841978 35.47246843011184 -31.365283218529115 0 0 0
2587 20 2 0.0 25.271625307779743 32.75254253985048 -31.546478202994294 0 0 0
2586 20 5 1.0 27.099817364529226 29.69739157827257 -31.602811044331297 0 0 0
2589 20 2 0.0 29.328225153941975 34.297183785779886 -28.472201966364477 0 0 0
2579 20 15 0.0 42.60093376617302 34.62132462121156 -27.680948447698587 0 0 0
2585 20 2 0.0 26.100219347880888 28.472455238924372 -28.140738972496624 0 0 0
4066 31 17 0.0 44.29623570019436 37.082299399945015 -43.55011673616914 0 0 0
4068 31 2 0.0 44.24527966972085 40.263567262057286 -38.136894653467714 0 0 0
9356 70 2 0.0 13.70502590471475 70.87358733504144 -31.116550982740115 0 0 0
5308 40 14 0.0 1.1587423184437216 57.58787506626311 -30.05252242253489 0 0 0
3673 28 17 0.0 0.47292850437344475 53.484073743370786 -46.80844702908538 1 0 0
4085 31 2 0.0 13.26297959991319 48.52503351754833 -30.682244547358607 0 0 0
4086 31 17 0.0 10.271991737347214 47.952940266146086 -32.82693394178226 0 0 0
4088 31 15 0.0 14.895774263093623 48.25023911249678 -38.16525722627857 0 0 0
5288 40 2 0.0 3.235676019775332 71.14556422516056 -41.574629162956256 0 0 0
9354 70 2 0.0 15.329504857552392 65.4942871733742 -27.983566160073888 0 0 0
9355 70 5 1.0 15.169068474253141 69.49367935756815 -28.007655145441053 0 0 0
9338 70 2 0.0 12.789869664498577 68.1144269398621 -40.96659528230312 0 0 0
9339 70 2 0.0 10.115684027160832 69.19620672043567 -43.49525957817175 0 0 0
4091 31 2 0.0 10.52323481153538 53.43388564256223 -45.33288000396698 0 0 0
4090 31 5 1.0 10.343807554731168 49.88778700296529 -43.16060428805998 0 0 0
4089 31 2 0.0 13.51442957198134 50.63996085359382 -41.090730103951564 0 0 0
5285 40 2 0.0 6.6076179630609815 69.03036598777439 -35.281508357922434 0 0 0
9346 70 14 0.0 8.521091613864089 55.0019411528798 -32.430993930838774 0 0 0
9336 70 5 1.0 14.540442990820004 62.20609812345238 -41.82400127923066 0 0 0
9335 70 2 0.0 16.63003525438365 60.84507598549038 -44.60230066494478 0 0 0
9337 70 2 0.0 16.025695191319148 65.53744361830455 -40.78266345632828 0 0 0
4094 31 2 0.0 18.7441598009024 52.07713320793738 -43.16584672747012 0 0 0
9340 70 14 0.0 6.89464712965412 66.83101192292581 -42.94385263951748 0 0 0
9345 70 17 0.0 7.117038856924448 55.82627565283265 -35.86278652307217 0 0 0
9344 70 7 -1.0 8.663247578612353 56.32253482301888 -39.42842483924542 0 0 0
9343 70 17 0.0 6.536766987848885 58.20864078613455 -41.833801273843484 0 0 0
9342 70 2 0.0 8.01263300733113 60.46444043347682 -44.28666351843199 0 0 0
9341 70 2 0.0 9.074041289345638 64.31756870025836 -44.848684994304946 0 0 0
4093 31 14 0.0 16.54057310840886 53.34348392507335 -46.1995631878843 0 0 0
5309 40 2 0.0 2.8609087119312475 55.04242966806552 -32.321822139294866 0 0 0
5310 40 2 0.0 2.4024289421404643 51.61369093610296 -30.350911885577776 0 0 0
9352 70 14 0.0 15.298161286005284 62.91645444672402 -33.888003296481685 0 0 0
5284 40 2 0.0 10.16545834891898 68.35101784677117 -34.46234706248312 0 0 0
9353 70 15 0.0 15.82059078356349 62.50959679058893 -30.447412620798893 0 0 0
9358 70 14 0.0 16.049792161925502 70.47243242889216 -36.52980588446338 0 0 0
4095 31 2 0.0 21.30941636106043 55.00483719537401 -42.23351653445864 0 0 0
4096 31 15 0.0 21.563877106321705 58.83963768954659 -41.787289870074765 0 0 0
4097 31 5 1.0 22.055662130227827 61.413151160896824 -39.002881866535546 0 0 0
5431 41 14 0.0 21.967877066633534 69.48521814407796 -29.552005295479773 0 0 0
5283 40 2 0.0 9.462962503828974 68.82521836652055 -30.720983307472306 0 0 0
9351 70 17 0.0 12.336007310516028 61.721051401451284 -35.3524052842559 0 0 0
9350 70 2 0.0 8.852526661942846 61.66257821903808 -33.99025674744844 0 0 0
9359 70 2 0.0 17.96478278156851 69.47053676484592 -39.92439350013996 0 0 0
9348 70 5 1.0 9.612452189447458 60.95788339506554 -28.26160407738278 0 0 0
9347 70 2 0.0 9.381678649282291 57.76003121224289 -30.120897550618647 0 0 0
9349 70 2 0.0 8.033165948838587 63.510828678215226 -30.98423997618885 0 0 0
5429 41 7 -1.0 28.42580039084266 69.81095454259477 -33.125921942894806 0 0 0
2753 21 2 0.0 42.11725764045772 60.91160756112201 -35.288742175529805 0 0 0
4104 31 2 0.0 24.46893574586221 60.47441061649388 -28.80684596929091 0 0 0
5430 41 17 0.0 24.29493861314609 70.43807677676789 -32.49256874053007 0 0 0
5425 41 14 0.0 39.764755206741604 67.974232455471 -37.64429514918269 0 0 0
4081 31 14 0.0 24.261144724578042 48.225424744981005 -36.56044912684879 0 0 0
1380 11 17 0.0 23.69320214174927 49.31912305479484 -28.640392609119058 0 0 0
2755 21 15 0.0 43.56679283271996 56.99154243013964 -28.516966892988307 0 0 0
2729 21 7 -1.0 28.901109571499497 58.208779618989816 -46.066783078840345 0 0 0
4098 31 2 0.0 24.661332690504228 63.281216862126946 -41.19242091323963 0 0 0
2739 21 2 0.0 36.68176515827599 57.14278839933577 -43.42974536712105 0 0 0
4076 31 2 0.0 36.04871078999808 48.43781352787556 -29.82895379275455 0 0 0
2731 21 14 0.0 34.28068511381856 62.74144602355314 -46.463462269301054 0 0 0
2733 21 5 1.0 32.99385308737027 66.27309682113132 -40.41295020231159 0 0 0
2734 21 2 0.0 34.05549036595458 65.81563561310374 -36.80561842787787 0 0 0
2732 21 2 0.0 34.22717545189838 65.25811060270554 -43.64504745525466 0 0 0
2730 21 17 0.0 31.775806934274826 60.15795942471993 -45.47392390097017 0 0 0
2737 21 14 0.0 36.90354789204999 58.84164030615051 -36.92619805324213 0 0 0
2736 21 17 0.0 36.58400655856276 61.87429151237862 -34.18679149682684 0 0 0
2735 21 2 0.0 33.97965594348655 64.4925375907413 -32.841850429694546 0 0 0
2743 21 14 0.0 43.77160064179436 61.27826793427027 -45.19238044432283 0 0 0
4099 31 2 0.0 27.898571757208817 61.98159543168173 -41.87331856742466 0 0 0
2738 21 15 0.0 37.307304134906175 59.862239973220085 -40.624658711987294 0 0 0
2741 21 2 0.0 41.50367525435123 56.07236349991846 -43.87990940329816 0 0 0
4100 31 2 0.0 29.990144366493915 59.85488693976989 -39.525082709775475 0 0 0
2740 21 5 1.0 38.961842027888814 56.37294229546461 -46.555418177796014 0 0 0
4101 31 2 0.0 29.88986351706969 59.90485850482208 -35.62061550213931 0 0 0
5427 41 2 0.0 35.02980309303294 69.85207814918485 -33.42773397681956 0 0 0
5426 41 2 0.0 37.64619267804276 67.73215935861757 -34.39962642731063 0 0 0
4103 31 2 0.0 26.14957599735707 60.57059415073577 -32.27970103760374 0 0 0
4102 31 9 0.0 29.485221760321267 58.06230652339181 -32.42153133111363 0 0 0
2754 21 2 0.0 42.98649699231502 58.711971374426064 -32.31233621261035 0 0 0
2742 21 7 -1.0 44.772064892772754 57.8377174273107 -44.0059138182147 0 0 0
2744 21 2 0.0 45.21596726727846 64.59658248016524 -44.50458282085412 0 0 0
2472 19 7 -1.0 22.354472332950703 0.6061677448226378 -15.71402304673893 1 0 0
13 1 2 0.0 9.599975061992973 19.220289831276638 -11.91737898803392 0 0 0
12 1 15 0.0 10.222073403039479 16.590667149429986 -14.70924120603001 0 0 0
2507 19 7 -1.0 1.0050380285612794 19.53311215798057 -16.31710869984592 1 0 0
2470 19 5 1.0 16.05006772593842 0.04388753124127698 -12.231930209525514 1 0 0
2491 19 2 0.0 4.031360918471432 8.049754516674481 -13.05009869293612 1 0 0
2489 19 9 0.0 7.650180962187124 4.98650240604428 -18.163742273562786 1 0 0
2485 19 15 0.0 17.737360011900737 8.020079851521233 -26.141963133676597 1 0 0
8 1 12 0.0 8.707775031017482 10.67377894501492 -25.286526181403953 0 0 0
2488 19 2 0.0 10.571692865990517 4.701564917666126 -20.019036328488536 1 0 0
9 1 5 1.0 8.431228899979866 10.967644708894625 -21.298003584457483 0 0 0
10 1 7 -1.0 7.41432513502973 12.697336102586577 -18.040206872096388 0 0 0
2487 19 7 -1.0 14.140209337761672 5.849263611600351 -19.647009117454044 1 0 0
11 1 5 1.0 6.6553649971606745 15.340162966361884 -15.203235884036925 0 0 0
2486 19 2 0.0 16.19021537519308 7.0483603388967095 -22.816119804227668 1 0 0
3838 29 2 0.0 8.396038139572472 19.92836771322753 -23.330408477306722 1 0 0
3837 29 7 -1.0 9.885970703168752 18.869164286467488 -26.711086323709846 1 0 0
2490 19 17 0.0 4.72311438622995 7.278191322751617 -16.65803875889675 1 0 0
3839 29 9 0.0 7.023969889208381 21.11698297313923 -20.044334785319595 1 0 0
2466 19 17 0.0 13.861487410207527 0.31919351475276747 -24.731726106416872 1 0 0
2475 19 2 0.0 21.55296232946647 3.089047084567674 -20.849849380499542 1 0 0
14 1 15 0.0 8.879161845173591 16.36918544629965 -9.206835336821765 0 0 0
2509 19 2 0.0 1.1680118493130296 20.84951434446911 -10.508594735805277 1 0 0
2492 19 14 0.0 1.8057852837685446 8.141505809889694 -9.984807184482165 1 0 0
2477 19 5 1.0 24.93264567550867 5.637057272318386 -27.204463325843985 1 0 0
163 2 17 0.0 24.03654323336011 7.704595917586919 -12.856795492804183 0 0 0
2476 19 15 0.0 23.31993700169032 4.576478523852396 -23.611213221181504 1 0 0
161 2 2 0.0 24.681785410223554 7.255147879089814 -18.131177636470856 0 0 0
159 2 2 0.0 26.23879417301479 13.53633248850743 -18.998189942797822 0 0 0
158 2 2 0.0 23.20186004651141 15.459102610138917 -17.817268995533027 0 0 0
12572 94 14 0.0 39.912441348467254 0.6555525196055696 -13.314705109539146 0 1 0
156 2 5 1.0 29.051005978728053 18.766136728674155 -20.362191988619777 0 0 0