LAMMPS data file via write_data, version 10 Mar 2021, timestep = 8504000

8505 atoms
40 atom types
8442 bonds
1 bond types

0 100 xlo xhi
0 100 ylo yhi
0 600 zlo zhi

Masses

1 131.2
2 57.05
3 128.2
4 101.1
5 156.2
6 71.08
7 115.1
8 129.1
9 163.2
10 99.06999999999999
11 113.2
12 128.1
13 186.2
14 147.2
15 87.08
16 137.1
17 114.1
18 97.12
19 103.1
20 113.2
21 131.2
22 57.05
23 128.2
24 101.1
25 156.2
26 71.08
27 115.1
28 129.1
29 163.2
30 99.06999999999999
31 113.2
32 128.1
33 186.2
34 147.2
35 87.08
36 137.1
37 114.1
38 97.12
39 103.1
40 113.2

Atoms # full

848 3 15 0 32.19874487260661 1.6460712243087823 143.34549206240527 -1 1 0
847 3 2 0 35.95881725993691 1.936390140462416 143.08277535662242 -1 1 0
1028 28 2 0 15.29047166714563 53.04938476507447 142.63162410640567 1 0 0
1029 28 15 0 18.063294377385507 51.65022747991197 145.05856959507912 1 0 0
1027 28 15 0 13.400417712981287 55.66699644323139 144.55464322058103 1 0 0
644 28 5 1 15.515178403287011 63.64906084517958 145.23035687828386 1 0 0
645 28 2 0 18.12450671967001 61.025118433032645 144.88078770125904 1 0 0
1026 28 5 1 16.58840878759934 57.71588994063182 144.91381871923176 1 0 0
643 28 12 0 14.469345025719356 65.84022446934743 142.38299554759888 1 0 0
1441 59 2 0 5.864669692792857 21.570584683104133 150.25913128218465 1 1 0
1440 59 14 0 5.668033514908256 18.394486811309246 152.42664507651622 1 1 0
1439 59 2 0 3.144603283422925 17.958288751113233 155.3242882767594 1 1 0
6222 59 14 0 7.62470072366515 10.676230822739766 164.08988741829694 1 1 0
6223 59 2 0 7.061633701632779 7.375623400222581 162.00372977154797 1 1 0
242 59 1 0 14.977122466084074 0.7015112817834613 166.48935433095156 1 1 0
6224 59 2 0 7.923706438235319 4.162032740117573 164.08537852264774 1 1 0
6098 59 5 1 10.719892203153139 16.989657705634894 161.7896423622501 1 1 0
6099 59 2 0 9.480775464623422 16.924609999627823 165.62281546408056 1 1 0
6100 59 2 0 9.472822972450436 13.240906220630034 166.1352673080561 1 1 0
6225 59 15 0 7.429615938020491 0.703121276637043 162.7048954731632 1 1 0
6025 59 2 0 7.604396117626824 18.646170559104053 160.4191547798174 1 1 0
6024 59 15 0 3.7999176995339887 19.884742722338032 161.0414915440306 1 1 0
1438 59 2 0 0.8514201255886465 14.682715436919638 154.53754465225506 1 1 0
476 3 12 0 27.609194500784188 2.8277274698879276 149.67475582850602 -1 1 0
504 3 5 1 30.312571714715983 4.957423471136628 150.8630019615565 -1 1 0
873 3 5 1 35.839530475842764 1.4925887458700977 149.063606673 -1 1 0
1456 8 7 -1 47.91073486682715 11.251015915677403 150.32222280368262 -1 1 0
1443 8 17 0 50.174190559571485 8.796774553724235 148.4560778021916 -1 1 0
1442 8 17 0 48.590849369963394 14.044523686383998 152.33835007667906 -1 1 0
1290 8 2 0 45.64943319747166 15.51346811418731 153.82361859637913 -1 1 0
1276 8 2 0 43.69273404542957 16.71679390856218 156.87019005888385 -1 1 0
1453 8 2 0 48.06637602701717 4.170722616770443 150.5170033865303 -1 1 0
1289 8 2 0 49.206642752633606 8.073242257680258 160.8097094492237 -1 1 0
1273 8 2 0 45.576160913957956 8.430574679804886 161.67500690935472 -1 1 0
159 4 15 0 37.12332048742532 20.643664056314172 155.7956186609666 -1 2 0
139 4 6 0 37.90668744625004 21.169971688923688 151.79092654557184 -1 2 0
157 4 6 0 35.15443247976156 19.554488486201503 158.62510190252007 -1 2 0
475 4 15 0 37.22451349151922 18.12794732310605 161.313054258104 -1 2 0
501 4 15 0 37.610547710776096 15.026898551226536 163.66809868591315 -1 2 0
627 4 15 0 40.727158666435194 13.697305753699606 164.42672509571275 -1 2 0
155 4 1 0 37.743585081921914 19.269297268102637 148.5276066669305 -1 2 0
1275 8 14 0 44.42435940640648 15.363116295705632 160.46924047196615 -1 1 0
4690 23 15 0 50.161324953292336 7.198004373118052 155.16062356215843 -1 1 0
874 3 15 0 38.08401730914134 2.2054740684621743 145.98963716185318 -1 1 0
477 3 2 0 32.47667490696147 1.882793341842012 150.29823009276953 -1 1 0
1274 8 2 0 46.5618594908541 12.077106006070784 161.81924760699863 -1 1 0
1617 8 5 1 46.95228501428997 0.5371577984339397 150.4220983699416 -1 1 0
1604 59 17 0 11.549821482017029 25.13701099277284 157.438941805652 1 1 0
1602 59 17 0 5.265199280773161 24.091913147533557 155.09045516455143 1 1 0
1603 59 7 -1 8.362242032836313 22.784230557089685 156.91711809225208 1 1 0
1601 59 2 0 6.659758399080837 25.196128309909422 151.7733722206869 1 1 0
1605 59 14 0 13.755589152352869 23.748375660669808 160.62936652050783 1 1 0
1606 59 2 0 11.649921122970536 23.39292096847608 163.55946907433898 1 1 0
2385 49 2 0 17.477469337716766 32.70929665690302 163.36595932858424 0 -1 0
2384 49 15 0 19.457491920043214 29.37954460113356 163.8880416875077 0 -1 0
2386 49 7 -1 14.233276546989629 33.42368270348076 161.44367286081007 0 -1 0
2402 49 2 0 11.838805292399506 32.609966693891955 164.42697816869236 0 -1 0
5853 59 14 0 3.5284623952800818 23.403454041592965 162.13714656420217 1 1 0
1759 59 2 0 8.414810590871884 26.37989145055302 166.7137564874021 1 1 0
5851 59 2 0 5.455235114307573 28.274899966953825 165.30053510522623 1 1 0
5852 59 17 0 5.462472432019318 26.4845028093315 162.13471982863248 1 1 0
5447 28 2 0 16.193601742603114 54.5535004522286 158.48535330555467 1 0 0
5513 28 2 0 16.058186705157787 48.28097348492433 159.51866864817808 1 0 0
5514 28 2 0 17.362458448493168 47.627371803327954 162.93255037862082 1 0 0
5446 28 5 1 17.879045723168606 51.10721472210584 158.22069495403727 1 0 0
1202 28 2 0 14.644306243891947 56.05477804042649 155.1759748111186 1 0 0
1201 28 2 0 16.24445555701571 56.701828383731154 151.85882772409047 1 0 0
1035 28 2 0 20.114372048320114 53.034996497790615 148.12100732140556 1 0 0
1033 28 17 0 18.41070772279732 51.59409039787015 151.41296553706454 1 0 0
1203 28 14 0 14.977479752168028 53.37746213300982 150.6455992719995 1 0 0
5515 28 2 0 19.826983472248944 49.57937836238233 165.09317599048245 1 0 0
8311 3 2 0 26.352429672177276 57.929276237518295 165.92621365216536 -1 0 0
8312 3 12 0 28.203707123426664 61.00505407935618 163.77285563019043 -1 0 0
8163 3 2 0 31.686666639644027 46.51332721560675 166.54633284405182 -1 0 0
8022 3 15 0 35.01819465217729 47.49361744810392 165.2410539048981 -1 0 0
8025 3 15 0 38.72367159094401 46.44693657709501 165.27731063132376 -1 0 0
3909 3 9 0 28.40357441505776 63.72871185654878 166.567531568516 -1 0 0
4158 59 17 0 21.140571168842 0.6086605311545121 176.86798358243064 1 1 0
598 59 5 1 6.297144053170433 16.714845981255277 172.12507130493853 1 1 0
245 59 6 0 7.270228372294687 3.404346510479183 172.23570172072436 1 1 0
984 59 5 1 8.551433194692844 21.93188933119115 176.55318898455423 1 1 0
3805 59 2 0 16.464738304853952 16.59370575968263 171.44812664016004 1 1 0
599 59 2 0 7.639202017175757 18.730276356009842 174.628168510912 1 1 0
3806 59 2 0 18.525522470823486 19.581883661579283 169.45450991246736 1 1 0
3965 59 2 0 21.090536866617978 16.90111780580986 169.4157452358825 1 1 0
3966 59 2 0 22.15912639936681 13.363077700075209 169.52478445179028 1 1 0
3959 59 12 0 19.169460666010117 12.28208683003215 171.42299061145764 1 1 0
596 59 15 0 3.0428700345523394 11.340833764535915 169.34500495324454 1 1 0
2198 49 2 0 18.561007263858716 21.792452911776998 174.97205049966337 0 -1 0
2197 49 2 0 22.25729886294016 21.835287672659074 175.53085004654776 0 -1 0
1511 2 14 0 1.3916137509159727 18.003164877480298 186.41916557339212 -1 0 0
3803 59 18 0 12.26683151787496 14.031910753002949 173.885516248091 1 1 0
8495 59 18 0 21.65588979275304 5.770847020550083 179.86514028137753 1 1 0
4157 59 5 1 19.321072444645896 2.8087509383680818 179.53487997348978 1 1 0
597 59 12 0 5.547375934537861 13.082186302812024 171.49360694030568 1 1 0
3804 59 9 0 14.676270468260425 16.87866144937876 174.69045796381326 1 1 0
8213 59 2 0 11.0564251049525 10.52425193022931 173.90640762883058 1 1 0
4156 59 3 1 24.23885071458322 8.221289955207927 178.38045940102646 1 1 0
4154 59 6 0 24.973959814269328 6.676089405057103 174.87892331186333 1 1 0
7744 48 17 0 13.285720516189503 20.44166934107402 181.35781541658258 1 0 0
7742 48 2 0 7.702258557850877 18.34654472855562 185.90372508770253 1 0 0
7743 48 2 0 9.575895378916544 20.113057469966346 182.88535454305597 1 0 0
8050 59 15 0 11.18737111802664 7.0343000622340455 175.9473175589727 1 1 0
595 59 15 0 4.1049164714614825 7.682373221267478 168.72165406941565 1 1 0
3960 59 9 0 20.064766303361644 8.237050952530218 171.55998917888883 1 1 0
2034 49 15 0 21.826094292700095 16.765219347378547 180.7654221653119 0 -1 0
997 59 17 0 1.8360633892716285 20.4424220712417 167.07723590967052 1 1 0
3961 59 14 0 23.67245736192264 6.456780261187172 171.44648964655815 1 1 0
2033 49 2 0 22.796734552446885 19.497505879808337 183.2424591624938 0 -1 0
2037 49 2 0 21.93207755144418 18.07619676783278 175.31594140796864 0 -1 0
7748 48 14 0 16.74467751331239 21.224794967447444 180.38345474199784 1 0 0
2035 49 5 1 20.935534229214596 14.958110213791791 177.4663991530969 0 -1 0
1512 2 7 -1 4.003958404447392 17.23177517807887 179.92874063394729 -1 0 0
131 59 2 0 15.273541398119352 1.5729730999647304 185.19277024260927 1 1 0
1659 2 2 0 8.95850005259508 8.199493564842973 186.8611866939344 -1 0 0
243 59 6 0 13.080336474512373 3.4297748721270267 168.2303923593996 1 1 0
8049 59 15 0 13.4969853298535 4.16557480019816 175.33026534060613 1 1 0
2407 50 2 0 15.432844223189264 20.468078464775303 187.06306197379084 1 0 0
8047 59 2 0 18.01041150312991 1.4114684448283705 171.7745807373962 1 1 0
2032 49 2 0 25.093386009232013 16.40577826373184 184.217986676438 0 -1 0
246 59 15 0 3.936631927547789 4.372803924343143 170.26674781462899 1 1 0
1510 2 17 0 2.5714374904624524 16.421592352729903 183.3693025724116 -1 0 0
468 59 15 0 20.221091004650976 2.1676461873113326 186.12943350655084 1 1 0
1509 2 17 0 1.950670649045872 19.653715358476546 177.7300964104617 -1 0 0
8048 59 5 1 14.604341892750364 1.087586462006191 173.82106525224322 1 1 0
988 59 2 0 1.316161738832727 19.975315750972083 171.12794718769487 1 1 0
244 59 15 0 9.66221497836081 2.509758459936557 169.58740246388047 1 1 0
1337 49 2 0 32.42761280432743 14.422661147919385 173.57922122514694 0 -1 0
1336 49 2 0 34.4156296020131 18.075992730665625 172.76939748493228 0 -1 0
1338 49 2 0 28.656976483145804 15.960733894440052 173.4404585664857 0 -1 0
1340 49 2 0 25.93899876005563 19.813838634437634 178.31082914067463 0 -1 0
1339 49 14 0 27.818874154035043 17.36238819168231 176.94961046083822 0 -1 0
2140 8 2 0 49.96549453636849 3.891615354367827 178.74653130856208 -1 1 0
1237 49 5 1 31.811387442564424 20.915863541907395 171.89070204374406 0 -1 0
2141 8 9 0 46.241069055658755 4.524511781649768 177.72097294107684 -1 1 0
2957 8 17 0 44.23589697295152 10.477966846786938 185.24071624630608 -1 1 0
615 4 12 0 42.91735400599074 13.926189807363917 167.59683665985028 -1 2 0
3183 8 17 0 35.151032090662746 2.9778820738877756 171.79169393920176 -1 1 0
3184 8 12 0 33.43883444995172 6.146289059098554 170.9241483424311 -1 1 0
3350 8 17 0 37.72512826356421 13.10127445514174 174.70818970859204 -1 1 0
3349 8 15 0 34.966053942387255 10.880312056705332 176.2021317951344 -1 1 0
3185 8 15 0 33.45292651752886 7.910547421225854 174.3925324506777 -1 1 0
3351 8 14 0 39.71419885025309 16.07989001505879 174.75997261060934 -1 1 0
628 4 5 1 44.880144464882555 13.67898447301746 171.00774692058783 -1 2 0
629 4 2 0 45.15135263976083 13.909933196967975 174.6998996266042 -1 2 0
3352 8 2 0 36.566761572175295 17.68898571633033 176.87854620804416 -1 1 0
5284 49 5 1 31.887793479883644 7.557202351590628 186.1188857077331 -1 0 0
3353 8 18 0 34.525728523112946 19.527491389665414 179.29940961004604 -1 1 0
1014 4 15 0 48.35379422966713 14.849207865409578 181.34497846048131 -1 2 0
1013 4 5 1 46.97264609451871 13.498123898428698 178.29901215479055 -1 2 0
3038 8 14 0 41.126945706093856 5.134579748415455 184.51664114579336 -1 1 0
2967 8 7 -1 41.446751193694666 8.35942764036283 183.43417585199256 -1 1 0
2142 8 2 0 42.87739024724401 5.082248893414267 175.8479549396668 -1 1 0
5269 49 2 0 36.02064642504878 12.579126906221532 183.81690697344007 -1 0 0
5270 49 5 1 33.52338851140938 9.854394980973955 183.9130820129232 -1 0 0
6852 2 14 0 29.024364691795242 3.216874583861508 180.26307863164706 -1 0 0
2327 8 15 0 46.49213118863346 3.2155580313552226 170.27386450481518 -1 1 0
2326 8 2 0 44.07006280025385 2.8661889890393852 173.0019270847709 -1 1 0
1002 4 2 0 49.49459704942766 12.611222283785878 183.93629163966364 -1 2 0
7030 2 2 0 30.98242116371503 0.3757805815712937 185.7554555012588 -1 0 0
7028 2 2 0 28.369798022626128 2.5217056483995037 183.9172135543675 -1 0 0
804 49 2 0 44.880184802188126 21.64488983171373 172.27554588148936 0 -1 0
802 49 2 0 48.86208202656878 20.08485090668892 176.7179276360213 0 -1 0
803 49 15 0 45.48021444653855 19.514777643741386 174.93541101614062 0 -1 0
2820 8 2 0 47.0849213598619 4.276045013016903 184.15580321445935 -1 1 0
7883 8 14 0 47.898534080958456 21.627890520541314 182.54520185089703 -1 1 0
7884 8 2 0 45.22562446373079 19.421889829475287 184.05458687179473 -1 1 0
1889 49 2 0 28.420256068328815 19.595214292824835 187.0861377696026 0 -1 0
1892 49 14 0 28.436271431212496 18.531822894031357 183.62053503189992 0 -1 0
6851 2 15 0 29.0735835065131 3.227476812131039 173.01989314047717 -1 0 0
5268 49 15 0 37.65775116934115 13.135838687861781 187.10627073029806 -1 0 0
3039 8 2 0 37.689775562027776 3.8912669062260656 183.94594664213488 -1 1 0
7940 8 2 0 45.46323771442007 16.619748993548022 186.3549851881883 -1 1 0
2328 8 2 0 45.6415502764098 0.04600967951429217 168.4059476227789 -1 1 0
3182 8 17 0 34.69052496183087 2.13739106327225 175.4275890365668 -1 1 0
5168 15 5 1 35.943005278203906 21.044379870751087 186.1748050065577 0 1 0
2819 8 2 0 45.8492537675774 0.9105894638845534 182.99102080542372 -1 1 0
3181 8 9 0 37.29775283801582 1.9804706847131772 177.94877063095916 -1 1 0
6850 2 17 0 28.575667048434504 1.9760678578673638 176.669911589991 -1 0 0
2821 8 2 0 46.19117764421624 3.6640655039052152 187.41664153005257 -1 1 0
3180 8 17 0 37.08004027092652 1.0713507379388618 181.54856648376608 -1 1 0
6849 2 2 0 29.340620939795055 0.4719523264884513 170.39543928271738 -1 0 0
2763 57 15 0 50.50973954626466 0.2114613566286398 186.20936948979238 0 1 0
2580 49 9 0 10.058850511314992 33.474502232134284 167.74322534994684 0 -1 0
2585 49 17 0 6.44331326420818 32.98892288918439 168.71104881981887 0 -1 0
2383 49 2 0 18.56423033864173 29.29509772736331 167.36995039412423 0 -1 0
985 59 15 0 8.175783139800272 23.834300401571873 173.17849940796313 1 1 0
986 59 2 0 4.932674189364562 23.12044517521436 171.31015342873528 1 1 0
1758 59 5 1 10.002901927663764 22.79639418944668 167.14277491546937 1 1 0
2587 49 14 0 3.8864159625902315 30.12115361816477 175.2476485035864 0 -1 0
2199 49 2 0 17.93618977864113 24.08462354747688 172.2245642040468 0 -1 0
2201 49 2 0 20.565494166485745 26.822510659389916 169.5890440313873 0 -1 0
2200 49 9 0 20.230653193976508 27.238571405178647 173.18983356584445 0 -1 0
2586 49 2 0 4.949820235246611 31.66749238391581 171.9256917340744 0 -1 0
7960 48 15 0 9.644575722839258 29.612791167752295 173.09416170472647 1 0 0
5063 30 2 0 3.3407154826330805 35.58992363116168 180.68513293703816 1 0 0
5064 30 15 0 3.1411576775744683 33.10788994942956 183.22371117974365 1 0 0
8083 48 2 0 8.15797883701706 29.134225791959178 184.21700393684304 1 0 0
8222 48 2 0 7.522921320963998 28.96142587093986 180.5251616519201 1 0 0
8082 48 2 0 10.109379034029653 32.0948193110176 182.63009284587008 1 0 0
5062 30 15 0 5.538064577413084 36.05977330369248 177.30904726334248 1 0 0
7230 50 17 0 9.56205456522833 36.804980912773 185.25963156448103 1 0 0
7275 50 7 -1 12.669146134217998 38.96437261811313 184.81283082377254 1 0 0
8080 48 18 0 14.158272660886338 34.300306537798654 179.03030034139343 1 0 0
8081 48 9 0 13.790685790752566 32.95392640872307 182.40721845349853 1 0 0
7961 48 15 0 9.78556899818069 33.414991122582464 174.3690428055483 1 0 0
7958 48 2 0 13.112234031447697 25.666211288926398 175.30345318104446 1 0 0
7892 48 2 0 15.37999164317824 23.822939711020442 177.81207022498995 1 0 0
8079 48 2 0 11.07206614902613 35.262043300977055 177.35567072369804 1 0 0
1704 49 5 1 21.643211781702067 32.175691092090894 178.83372141965035 0 -1 0
1552 49 2 0 23.424353685078003 30.794843694053032 175.86998204865378 0 -1 0
1705 49 2 0 21.546874080607704 31.762352113452554 182.61509969156816 0 -1 0
5767 15 7 -1 24.737613278112487 42.616716191032864 177.64367616243237 0 1 0
7959 48 5 1 12.915980061769455 27.66509358394592 171.95099544120822 1 0 0
2588 49 2 0 0.492054777710827 31.5466471834042 174.67387843173236 0 -1 0
1706 49 2 0 25.052242297632517 32.99501162460229 183.45625004720398 0 -1 0
7358 50 2 0 20.582502811154495 40.39547921523914 186.2894651835507 1 0 0
7357 50 14 0 16.845407342455232 39.01913233371217 185.93164676127327 1 0 0
5061 30 5 1 7.610523472481367 39.54538541102891 176.74816897051903 1 0 0
5768 15 17 0 25.216570777305435 41.94386477322567 173.66764728868853 0 1 0
1708 49 14 0 23.92817904897801 27.41213450256801 186.6789020692668 0 -1 0
8224 48 2 0 5.862334692788999 25.712526603877645 180.81905857611085 1 0 0
5625 23 2 0 0.16127470499926627 42.79199744158184 183.77338702440483 0 0 0
4700 30 2 0 8.256765472275973 43.197607054542516 175.0117402102389 1 0 0
5769 15 14 0 21.941313057318865 42.540404512220704 171.8456568312276 0 1 0
5626 23 2 0 3.3845687812209753 43.470223554682285 181.86957912153886 0 0 0
2406 50 15 0 16.77738477032701 23.974002892634026 186.83343275708833 1 0 0
987 59 15 0 1.5150157788589904 23.144318697288337 172.3293258356858 1 1 0
8277 48 12 0 2.087680516744025 25.888703782986568 180.76040477089902 1 0 0
2591 49 17 0 0.45544831948430775 35.14265730136941 173.66426899244433 0 -1 0
1121 49 2 0 33.31458465943039 22.349950588341457 174.70290643788536 0 -1 0
1119 49 2 0 35.43900073609067 26.17495978928059 171.96101451527218 0 -1 0
1346 49 2 0 27.200082516188107 23.04214654102478 178.0114182637272 0 -1 0
1491 49 17 0 28.781308613927262 24.587830942586397 180.9646325502631 0 -1 0
1118 49 14 0 38.410291837531936 23.372053634172776 172.00233165875008 0 -1 0
1544 49 14 0 26.62106435817436 31.264304390299348 173.359795138769 0 -1 0
5766 15 17 0 26.85402475832793 43.08322559851608 180.78749083233535 0 1 0
5622 15 2 0 26.077144569229617 39.44137374834133 182.70432284579616 0 1 0
1120 49 2 0 33.04874335675016 26.117140096200306 174.53791553719938 0 -1 0
1538 49 17 0 29.129116070994247 29.813728231216164 175.74380992407183 0 -1 0
1492 49 7 -1 30.323438654414602 27.928254315703917 179.1600123028926 0 -1 0
5171 15 15 0 34.78478451334725 32.160340287563635 185.52215083848736 0 1 0
5618 15 2 0 29.080575745236295 37.0703022837767 182.4150381685008 0 1 0
3536 8 1 0 36.91142085686084 22.588988153584452 178.6114973899283 -1 1 0
1707 49 17 0 25.95478579200223 30.424455977113478 186.3229747000197 0 -1 0
818 49 17 0 41.9527535565938 24.54982985490742 172.47196793740417 0 -1 0
3539 8 3 1 39.554472675174374 23.568770997139136 180.99979083891972 -1 1 0
5172 15 2 0 35.825147703465575 29.587443088490605 182.223948749018 0 1 0
5486 15 2 0 38.52534379112455 38.175369282324134 186.0944647399302 0 1 0
5392 15 2 0 40.46097679012843 34.873878889695206 186.48686251997603 0 1 0
5391 15 2 0 39.83205157887707 34.94954200809676 182.80535329873223 0 1 0
5179 15 17 0 36.94699851915447 30.638827642179155 178.51707086476674 0 1 0
5170 15 2 0 34.39386007615847 28.367222362057355 186.78138495867387 0 1 0
5169 15 15 0 35.71875085520683 24.627139845231028 186.30379293118557 0 1 0
8232 8 9 0 45.45524518130982 38.29946910344272 179.60353177638743 -1 1 0
8233 8 14 0 45.79903192648292 35.321495932926304 182.05867646434152 -1 1 0
5390 15 14 0 37.30626178064152 34.25404383380302 180.069053047183 0 1 0
8385 8 6 0 45.05815655171044 36.001452536184026 185.59820826653888 -1 1 0
5614 15 2 0 34.83223152769775 40.036797408692486 181.41590641881828 0 1 0
5487 15 5 1 36.86408107005072 41.10891923454306 184.3221837029537 0 1 0
5617 15 14 0 30.637576657128186 34.52857046477821 180.0719686420499 0 1 0
5616 15 2 0 30.228073893319003 37.78702283646178 177.92359843866672 0 1 0
5615 15 2 0 33.67341298213273 39.7857906603775 177.90641369125396 0 1 0
8231 8 12 0 47.89915438747473 41.075026124284115 180.56656348645342 -1 1 0
8053 8 18 0 48.760366446229604 29.47236404388504 186.5918900973421 -1 1 0
8398 8 18 0 45.00094489028792 43.00372770658199 186.01764974713421 -1 1 0
8401 8 3 1 43.51843015558481 39.35630456311178 186.92322000472075 -1 1 0
7834 3 2 0 49.319069853348246 41.19269281364119 170.1626278465848 -1 0 0
7726 8 2 0 42.338152967231245 22.254307101937012 178.73185542307195 -1 1 0
7727 8 2 0 44.13899439143057 25.333320078166217 179.69739751432928 -1 1 0
7728 8 17 0 47.792649764026656 25.13977015377629 181.36196050557717 -1 1 0
4374 30 6 0 3.2448841020951114 53.80974140706462 171.762700495592 1 0 0
908 28 2 0 8.818679733653711 60.863120126453985 180.5165611990235 1 0 0
4698 30 12 0 7.492402285530327 48.53525889297447 176.57159579465187 1 0 0
4696 30 15 0 5.548881154891831 48.31009863391655 170.80251731968275 1 0 0
4697 30 15 0 4.253172874653324 48.36841165806896 174.55890412150163 1 0 0
4699 30 5 1 10.713860331823025 46.323117988940055 175.36715150825535 1 0 0
910 28 2 0 13.8550665666872 60.96678081025678 178.76130277694267 1 0 0
4678 30 15 0 6.21162259086151 51.99394414481724 170.27637545979977 1 0 0
5693 28 2 0 14.245865727829049 57.01534719616969 169.85072523332067 1 0 0
5516 28 14 0 20.7453295193651 50.03685810409796 168.80177957297238 1 0 0
5689 28 7 -1 12.332794406331754 54.19187807114384 176.44656542771816 1 0 0
5846 28 5 1 17.50328707167249 58.348142470515675 170.7731781386752 1 0 0
5881 28 2 0 20.51681409334964 56.61598613693363 172.66151351258733 1 0 0
909 28 15 0 11.789497982212042 58.45299217772468 180.85821300104053 1 0 0
5883 28 17 0 19.040041811686088 54.38899252414647 178.0738103247234 1 0 0
5517 28 2 0 17.114050646509455 49.680856778012476 169.5353531561151 1 0 0
5882 28 2 0 21.33212781890883 56.96177712447665 176.51722642558988 1 0 0
5627 23 14 0 1.8580194647089183 46.393253007494295 179.72536550053337 0 0 0
5518 28 2 0 15.20242581926926 52.50758503386049 170.58114477213368 1 0 0
5688 28 17 0 14.896158689321611 52.82687891887608 174.32256981200374 1 0 0
6038 28 15 0 15.89107376279902 52.01821790408992 183.7769766799056 1 0 0
5884 28 14 0 17.94813923494917 52.47619006203052 180.81400542692705 1 0 0
5771 15 2 0 19.535337580513435 44.304947374409245 174.36621865171037 0 1 0
6245 28 2 0 10.481452153574546 62.62219987699122 187.3524854753123 1 0 0
1164 28 14 0 18.41528874877077 60.176404034761326 186.85745764522056 1 0 0
5935 15 5 1 21.243151388047753 47.544391725785886 176.14929871257746 0 1 0
5690 28 17 0 10.51628870894954 57.118301603341045 174.61459883297297 1 0 0
921 28 5 1 18.701026207919636 59.48551264979766 183.17311874453273 1 0 0
911 28 5 1 17.508889127978076 60.68604497259846 179.8635487481157 1 0 0
6246 28 2 0 13.830501554396353 64.1592132681697 187.18244668993242 1 0 0
6039 28 2 0 16.283091587662508 50.60133342177429 187.32197601140348 1 0 0
5937 15 2 0 23.28093303608402 50.089265500356866 181.9194699330717 0 1 0
5936 15 2 0 23.804176831113562 48.511661072971336 178.75067492264193 0 1 0
907 28 9 0 8.033079032303819 64.04507315879925 179.00702158410286 1 0 0
5691 28 14 0 10.489363279470822 57.779273677138164 170.91739017248517 1 0 0
4677 23 15 0 22.018575082891488 45.29002980554651 185.77656425368295 0 0 0
7844 3 17 0 46.80812673929945 47.461759071011954 169.2952720280185 -1 0 0
7926 3 14 0 45.435496991666454 47.18870085152584 173.45842487829142 -1 0 0
8310 3 2 0 27.272053326070854 57.083276052920645 169.55638063365078 -1 0 0
8154 3 2 0 26.162188359580476 56.8724854413555 173.38112273725915 -1 0 0
7073 3 2 0 50.364161549308825 53.33050913489184 186.15470324237322 -1 0 0
6777 3 2 0 46.05376944411845 64.48714521615443 170.82630955038053 -1 0 0
8023 3 2 0 40.44010958415417 44.852794447425296 172.26309788559632 -1 0 0
4540 48 15 0 40.58745309274881 52.475782748537334 180.6573979454925 0 0 0
4538 48 1 0 36.68111569968701 55.01722087463551 176.1304207850527 0 0 0
4539 48 6 0 37.034195720294164 52.941122645495575 179.37937506144218 0 0 0
8024 3 5 1 40.2858224289528 45.19807431816883 168.5827690370883 -1 0 0
7927 3 2 0 41.673951827529045 47.391792907496004 174.69778439672262 -1 0 0
4541 48 6 0 40.310449919049105 49.1625894425702 180.72754534649806 0 0 0
4095 3 18 0 30.215144944713174 60.84885174551222 175.493221184505 -1 0 0
8164 3 18 0 30.069931085301402 47.511013052982264 169.873475447102 -1 0 0
4656 14 15 0 45.97764943944284 54.31391334435014 171.27101971102815 0 0 0
8152 3 9 0 27.581722025450105 49.87036336171834 171.69985142025584 -1 0 0
4345 14 6 0 48.167607050054286 59.582405942019896 167.79293829817112 0 0 0
4640 14 15 0 46.77568066425216 58.01214182854887 171.00346014530763 0 0 0
6923 3 2 0 39.28577490031696 63.18416928662964 176.96202985803006 -1 0 0
6895 3 15 0 37.351734581943965 63.30964664104297 180.12017383811235 -1 0 0
8153 3 2 0 26.037730286206376 53.23654832740672 172.4251290761584 -1 0 0
1763 15 2 0 34.650748069850806 47.317586892361824 183.629282679194 0 1 0
5938 15 17 0 25.78720461694102 52.59579540090981 183.31571921599257 0 1 0
5939 15 14 0 29.250567914471535 51.97836236347304 181.62318040626076 0 1 0
1762 15 15 0 32.64470994617423 50.07103702671403 182.12890016303876 0 1 0
1819 15 5 1 35.84979767302376 47.06846475670679 187.22339572369916 0 1 0
4079 3 12 0 27.84736255758182 64.044580901944 185.22407351991495 -1 0 0
3910 3 14 0 30.303028528903717 65.23026207297605 169.65978755962522 -1 0 0
4096 3 5 1 27.950296203734766 62.50659630664129 177.8223881308554 -1 0 0
4083 3 17 0 28.424850590599622 63.38536405474309 181.44991295984582 -1 0 0
7071 3 2 0 45.63077509264251 58.80898610230225 182.044496685004 -1 0 0
6888 3 17 0 38.59141899357508 59.735542439284416 180.95681899535913 -1 0 0
6889 3 14 0 41.89802860245946 59.30570725144443 182.39871092895095 -1 0 0
3 3 2 0 25.36007251107771 61.20974151120602 185.82272316433944 -1 0 0
7063 3 2 0 48.25281819163865 57.508133044988305 183.82861008945358 -1 0 0
4875 48 15 0 43.03616646343719 48.34412447233964 183.35661282135382 0 0 0
4888 48 15 0 46.647716762702004 48.690995925414164 181.8835478311746 0 0 0
6924 3 7 -1 41.01769037822972 60.8704433466594 174.48181398009064 -1 0 0
4889 48 15 0 50.001186262183396 49.395370404847505 183.30635632879572 0 0 0
4093 3 6 0 33.788691731134655 63.475823157572044 171.0300866690759 -1 0 0
6792 3 17 0 43.23903773859439 63.486136624643585 172.47428015258168 -1 0 0
8402 8 5 1 48.18552793584407 45.19744003255833 187.35623802970218 -1 1 0
4365 23 6 0 25.428535699503144 46.17540185819212 187.05802778428128 0 0 0
4657 14 15 0 47.74354751243843 53.33016817845433 174.4943183200088 0 0 0
7072 3 2 0 48.17276650335476 53.61255575094703 182.8590806324551 -1 0 0
4094 3 3 1 33.619535946787266 62.74132966041821 174.5850174231116 -1 0 0
7843 3 2 0 48.71028299566728 44.589503559790195 168.17288258571432 -1 0 0
6773 3 17 0 47.399110432205475 65.84290837439575 178.23569999607932 -1 0 0
5458 14 5 1 44.928002518790095 65.13746517827451 186.80192987957963 0 0 0
2474 39 14 0 4.414175216435348 6.969846697626741 195.32736226850574 0 1 0
2289 39 2 0 0.08320605200920916 11.601539602963294 202.88070899853744 0 1 0
3214 48 15 0 7.936053369620879 15.235133918791702 205.7400278026202 1 0 0
3299 30 14 0 15.26537146227301 20.402001169571893 207.47006082958927 1 0 0
4346 15 1 0 18.995999683627147 1.9372310625239257 192.964971422683 0 1 0
1514 2 2 0 2.3214072110377866 14.863212444410053 188.32044013044174 -1 0 0
3212 48 17 0 1.8076540872121425 15.471522128834588 206.77961210236518 1 0 0
3297 30 15 0 8.425107623923193 21.654813552909104 205.4900220990879 1 0 0
3298 30 17 0 11.586536577467168 19.6607507130676 207.15296869822575 1 0 0
467 59 15 0 16.999537721493233 3.938488597853251 187.71982534118726 1 1 0
2473 39 2 0 3.3784895228932275 9.427698859171711 198.49092064796963 0 1 0
3547 48 3 1 8.742872932716159 16.122647226446954 188.94263585720145 1 0 0
4714 39 15 0 4.508439879306145 18.774441293241335 198.11212072394937 0 1 0
2082 2 2 0 15.48138966035252 3.6328456630321067 203.8063464651922 -1 0 0
2086 2 2 0 16.12742374603737 4.847933301154446 200.11751126703035 -1 0 0
1914 2 2 0 17.359463667581373 7.650836543780853 202.88811679543392 -1 0 0
1899 2 2 0 19.194660985769357 10.787528677833448 201.9935060799316 -1 0 0
1663 2 5 1 3.8766134799369145 11.378292636387712 189.58968764202416 -1 0 0
3374 48 15 0 9.315502778225861 16.640119086577876 202.6880563272432 1 0 0
3376 48 14 0 14.05800426676091 17.816276565769027 197.86165651445322 1 0 0
3375 48 17 0 11.277371540494993 19.33074863281366 200.31991888185965 1 0 0
3377 48 2 0 14.609828006438075 15.04050266878605 195.51977577126942 1 0 0
4724 39 15 0 8.519802409547614 12.592087318282088 197.29952128413316 0 1 0
1661 2 14 0 13.598986820265905 6.642568435816124 191.97504203625078 -1 0 0
1792 2 15 0 16.932226626082237 8.308155479954197 192.63321665640086 -1 0 0
1660 2 17 0 12.731961453226807 8.129226598100177 188.2349196024734 -1 0 0
1658 2 2 0 6.167714970991939 8.402320622649242 189.8633456867208 -1 0 0
4855 39 5 1 10.845458276352778 7.769649383986422 201.20243553744282 0 1 0
4867 39 2 0 8.5079498295091 4.666671308957 202.7772844771465 0 1 0
5234 39 5 1 8.09669044366685 1.658170600900401 200.5991154131006 0 1 0
4854 39 12 0 11.014020707443347 9.791784683069954 197.94446957288002 0 1 0
3546 48 1 0 10.5341196565168 14.616137958596006 191.85212477453115 1 0 0
4723 39 15 0 7.0756830066443746 16.011354243794333 197.30546944430566 0 1 0
1893 2 5 1 19.016603614796054 11.460702495154944 198.2034754768377 -1 0 0
1813 2 2 0 16.515660000276338 9.119446063066029 196.4621545254186 -1 0 0
3378 48 18 0 14.467654060474935 14.571390831433764 191.67387981441178 1 0 0
2085 2 14 0 17.935730002441034 6.153001360615038 205.9182126833998 -1 0 0
4348 15 15 0 24.982600355869213 5.845774576000107 193.40770125609703 0 1 0
3356 16 14 0 16.226132574755322 13.033222218160875 206.60519101523334 0 1 0
3357 16 2 0 19.588147071630402 14.812954243830568 205.40901288745164 0 1 0