LAMMPS data file via write_data, timestep = 0

14160 atoms
44 atom types
14100 bonds
1 bond types

0.0 150.0 xlo xhi
0.0 150.0 ylo yhi
-500.0 500.0 zlo zhi

Masses

1 131.199997
2 57.0499992
3 128.1999970
4 101.0999999
5 156.1999999
6 71.08000180
7 115.099998
8 129.1000060
9 163.1999999
10 99.0699997
11 113.199997
12 128.100006
13 186.199997
14 147.199997
15 87.0800010
16 137.100006
17 114.099998
18 97.1200027
19 103.099998
20 113.199997
21 131.199997
22 57.0499992
23 128.199997
24 101.099998
25 156.199997
26 71.0800018
27 115.099998
28 129.100006
29 163.199997
30 99.0699997
31 113.199997
32 128.100006
33 186.199997
34 147.199997
35 87.0800018
36 137.100006
37 114.099998
38 97.1200027
39 103.099998
40 113.199997
41 329.2
42 305.2
43 345.2
44 306.2

Atoms

1 1 1 0.0 29.0 7.0 -300.0 0 0 0
2 1 2 0.0 29.0 10.5 -298.3416876048223 0 0 0
3 1 7 -1.0 25.5 10.5 -296.6833752096446 0 0 0
4 1 8 -1.0 25.5 7.0 -295.0250628144669 0 0 0
5 1 7 -1.0 29.0 7.0 -293.3667504192892 0 0 0
6 1 13 0.0 29.0 10.5 -291.7084380241115 0 0 0
7 1 8 -1.0 25.5 10.5 -290.0501256289338 0 0 0
8 1 6 0.0 25.5 7.0 -288.3918132337561 0 0 0
9 1 8 -1.0 29.0 7.0 -286.7335008385784 0 0 0
10 1 20 0.0 29.0 10.5 -285.0751884434007 0 0 0
11 1 17 0.0 25.5 10.5 -283.416876048223 0 0 0
12 1 18 0.0 25.5 7.0 -281.7585636530453 0 0 0
13 1 16 0.5 29.0 7.0 -280.1002512578676 0 0 0
14 1 1 0.0 29.0 10.5 -278.4419388626899 0 0 0
15 1 15 0.0 25.5 10.5 -276.7836264675122 0 0 0
16 1 15 0.0 25.5 7.0 -275.1253140723345 0 0 0
17 1 9 0.0 29.0 7.0 -273.4670016771568 0 0 0
18 1 10 0.0 29.0 10.5 -271.8086892819791 0 0 0
19 1 18 0.0 25.5 10.5 -270.1503768868014 0 0 0
20 1 20 0.0 25.5 7.0 -268.4920644916237 0 0 0
21 1 6 0.0 29.0 7.0 -266.833752096446 0 0 0
22 1 8 -1.0 29.0 10.5 -265.1754397012683 0 0 0
23 1 3 1.0 25.5 10.5 -263.51712730609063 0 0 0
24 1 7 -1.0 25.5 7.0 -261.8588149109129 0 0 0
25 1 5 1.0 29.0 7.0 -260.2005025157352 0 0 0
26 1 9 0.0 29.0 10.5 -258.5421901205575 0 0 0
27 1 15 0.0 25.5 10.5 -256.8838777253798 0 0 0
28 1 2 0.0 25.5 7.0 -255.2255653302021 0 0 0
29 1 8 -1.0 29.0 7.0 -253.56725293502438 0 0 0
30 1 17 0.0 29.0 10.5 -251.9089405398467 0 0 0
31 1 2 0.0 25.5 10.5 -250.250628144669 0 0 0
32 1 7 -1.0 25.5 7.0 -248.59231574949132 0 0 0
33 1 17 0.0 29.0 7.0 -246.9340033543136 0 0 0
34 1 6 0.0 29.0 10.5 -245.2756909591359 0 0 0
35 1 17 0.0 25.5 10.5 -243.6173785639582 0 0 0
36 1 5 1.0 25.5 7.0 -241.9590661687805 0 0 0
37 1 4 0.0 29.0 7.0 -240.30075377360282 0 0 0
38 1 18 0.0 29.0 10.5 -238.6424413784251 0 0 0
39 1 6 0.0 25.5 10.5 -236.9841289832474 0 0 0
40 1 15 0.0 25.5 7.0 -235.3258165880697 0 0 0
41 1 15 0.0 29.0 7.0 -233.667504192892 0 0 0
42 1 15 0.0 29.0 10.5 -232.00919179771432 0 0 0
43 1 8 -1.0 25.5 10.5 -230.3508794025366 0 0 0
44 1 1 0.0 25.5 7.0 -228.6925670073589 0 0 0
45 1 7 -1.0 29.0 7.0 -227.0342546121812 0 0 0
46 1 7 -1.0 29.0 10.5 -225.3759422170035 0 0 0
47 1 2 0.0 25.5 10.5 -223.71762982182582 0 0 0
48 1 18 0.0 25.5 7.0 -222.0593174266481 0 0 0
49 1 15 0.0 29.0 7.0 -220.4010050314704 0 0 0
50 1 5 1.0 29.0 10.5 -218.7426926362927 0 0 0
51 1 5 1.0 25.5 10.5 -217.084380241115 0 0 0
52 1 7 -1.0 25.5 7.0 -215.42606784593733 0 0 0
53 1 16 0.5 29.0 7.0 -213.7677554507596 0 0 0
54 1 6 0.0 29.0 10.5 -212.1094430555819 0 0 0
55 1 1 0.0 25.5 10.5 -210.4511306604042 0 0 0
56 1 3 1.0 25.5 7.0 -208.79281826522651 0 0 0
57 1 15 0.0 29.0 7.0 -207.1345058700488 0 0 0
58 1 2 0.0 29.0 10.5 -205.4761934748711 0 0 0
59 1 6 0.0 25.5 10.5 -203.8178810796934 0 0 0
60 1 6 0.0 25.5 7.0 -202.1595686845157 0 0 0
61 1 15 0.0 29.0 7.0 -200.50125628933802 0 0 0
62 1 2 0.0 29.0 10.5 -198.8429438941603 0 0 0
63 1 5 1.0 25.5 10.5 -197.1846314989826 0 0 0
64 1 17 0.0 25.5 7.0 -195.5263191038049 0 0 0
65 1 6 0.0 29.0 7.0 -193.8680067086272 0 0 0
66 1 2 0.0 29.0 10.5 -192.20969431344952 0 0 0
67 1 17 0.0 25.5 10.5 -190.5513819182718 0 0 0
68 1 5 1.0 25.5 7.0 -188.8930695230941 0 0 0
69 1 7 -1.0 29.0 7.0 -187.2347571279164 0 0 0
70 1 6 0.0 29.0 10.5 -185.5764447327387 0 0 0
71 1 2 0.0 25.5 10.5 -183.91813233756102 0 0 0
72 1 8 -1.0 25.5 7.0 -182.2598199423833 0 0 0
73 1 19 0.0 29.0 7.0 -180.6015075472056 0 0 0
74 1 17 0.0 29.0 10.5 -178.9431951520279 0 0 0
75 1 3 1.0 25.5 10.5 -177.2848827568502 0 0 0
76 1 5 1.0 25.5 7.0 -175.62657036167252 0 0 0
77 1 7 -1.0 29.0 7.0 -173.9682579664948 0 0 0
78 1 17 0.0 29.0 10.5 -172.3099455713171 0 0 0
79 1 4 0.0 25.5 10.5 -170.6516331761394 0 0 0
80 1 15 0.0 25.5 7.0 -168.9933207809617 0 0 0
81 1 4 0.0 29.0 7.0 -167.33500838578402 0 0 0
82 1 1 0.0 29.0 10.5 -165.6766959906063 0 0 0
83 1 2 0.0 25.5 10.5 -164.01838359542862 0 0 0
84 1 2 0.0 25.5 7.0 -162.3600712002509 0 0 0
85 1 6 0.0 29.0 7.0 -160.7017588050732 0 0 0
86 1 2 0.0 29.0 10.5 -159.0434464098955 0 0 0
87 1 10 0.0 25.5 10.5 -157.3851340147178 0 0 0
88 1 2 0.0 25.5 7.0 -155.72682161954012 0 0 0
89 1 3 1.0 29.0 7.0 -154.0685092243624 0 0 0
90 1 15 0.0 29.0 10.5 -152.4101968291847 0 0 0
91 1 6 0.0 25.5 10.5 -150.751884434007 0 0 0
92 1 2 0.0 25.5 7.0 -149.0935720388293 0 0 0
93 1 17 0.0 29.0 7.0 -147.43525964365162 0 0 0
94 1 5 1.0 29.0 10.5 -145.7769472484739 0 0 0
95 1 2 0.0 25.5 10.5 -144.11863485329621 0 0 0
96 1 6 0.0 25.5 7.0 -142.4603224581185 0 0 0
97 1 15 0.0 29.0 7.0 -140.8020100629408 0 0 0
98 1 17 0.0 29.0 10.5 -139.14369766776312 0 0 0
99 1 15 0.0 25.5 10.5 -137.4853852725854 0 0 0
100 1 5 1.0 25.5 7.0 -135.82707287740772 0 0 0
101 1 6 0.0 29.0 7.0 -134.16876048223 0 0 0
102 1 8 -1.0 29.0 10.5 -132.5104480870523 0 0 0
103 1 7 -1.0 25.5 10.5 -130.85213569187462 0 0 0
104 1 2 0.0 25.5 7.0 -129.1938232966969 0 0 0
105 1 7 -1.0 29.0 7.0 -127.53551090151922 0 0 0
106 1 15 0.0 29.0 10.5 -125.8771985063415 0 0 0
107 1 15 0.0 25.5 10.5 -124.21888611116381 0 0 0
108 1 2 0.0 25.5 7.0 -122.56057371598612 0 0 0
109 1 6 0.0 29.0 7.0 -120.9022613208084 0 0 0
110 1 13 0.0 29.0 10.5 -119.24394892563072 0 0 0
111 1 5 1.0 25.5 10.5 -117.585636530453 0 0 0
112 1 8 -1.0 25.5 7.0 -115.92732413527531 0 0 0
113 1 15 0.0 29.0 7.0 -114.2690117400976 0 0 0
114 1 15 0.0 29.0 10.5 -112.61069934491991 0 0 0
115 1 17 0.0 25.5 10.5 -110.95238694974222 0 0 0
116 1 7 -1.0 25.5 7.0 -109.2940745545645 0 0 0
117 1 19 0.0 29.0 7.0 -107.63576215938681 0 0 0
118 1 8 -1.0 29.0 10.5 -105.9774497642091 0 0 0
119 1 7 -1.0 25.5 10.5 -104.31913736903141 0 0 0
120 1 17 0.0 25.5 7.0 -102.66082497385372 0 0 0
121 1 18 0.0 29.0 7.0 -101.002512578676 0 0 0
122 1 4 0.0 29.0 10.5 -99.34420018349832 0 0 0
123 1 5 1.0 25.5 10.5 -97.6858877883206 0 0 0
124 1 17 0.0 25.5 7.0 -96.02757539314291 0 0 0
125 1 5 1.0 29.0 7.0 -94.36926299796522 0 0 0
126 1 2 0.0 29.0 10.5 -92.7109506027875 0 0 0
127 1 6 0.0 25.5 10.5 -91.05263820760982 0 0 0
128 1 15 0.0 25.5 7.0 -89.3943258124321 0 0 0
129 1 3 1.0 29.0 7.0 -87.73601341725441 0 0 0
130 1 5 1.0 29.0 10.5 -86.07770102207672 0 0 0
131 1 2 0.0 25.5 10.5 -84.419388626899 0 0 0
132 1 2 0.0 25.5 7.0 -82.76107623172132 0 0 0
133 1 9 0.0 29.0 7.0 -81.1027638365436 0 0 0
134 1 5 1.0 29.0 10.5 -79.44445144136591 0 0 0
135 1 7 -1.0 25.5 10.5 -77.78613904618823 0 0 0
136 1 2 0.0 25.5 7.0 -76.12782665101051 0 0 0
137 1 17 0.0 29.0 7.0 -74.46951425583282 0 0 0
138 1 17 0.0 29.0 10.5 -72.8112018606551 0 0 0
139 1 15 0.0 25.5 10.5 -71.15288946547741 0 0 0
140 1 8 -1.0 25.5 7.0 -69.49457707029973 0 0 0
141 1 6 0.0 29.0 7.0 -67.83626467512201 0 0 0
142 1 15 0.0 29.0 10.5 -66.17795227994432 0 0 0
143 1 2 0.0 25.5 10.5 -64.5196398847666 0 0 0
144 1 18 0.0 25.5 7.0 -62.861327489588916 0 0 0
145 1 9 0.0 29.0 7.0 -61.20301509441123 0 0 0
146 1 5 1.0 29.0 10.5 -59.54470269923351 0 0 0
147 1 5 1.0 25.5 10.5 -57.88639030405582 0 0 0
148 1 2 0.0 25.5 7.0 -56.228077908878106 0 0 0
149 1 2 0.0 29.0 7.0 -54.56976551370042 0 0 0
150 1 5 1.0 29.0 10.5 -52.9114531185227 0 0 0
151 1 2 0.0 25.5 10.5 -51.25314072334501 0 0 0
152 1 15 0.0 25.5 7.0 -49.594828328167324 0 0 0
153 1 6 0.0 29.0 7.0 -47.93651593298961 0 0 0
154 1 5 1.0 29.0 10.5 -46.27820353781192 0 0 0
155 1 2 0.0 25.5 10.5 -44.6198911426342 0 0 0
156 1 19 0.0 25.5 7.0 -42.96157874745654 0 0 0
157 1 5 1.0 29.0 7.0 -41.3032663522788 0 0 0
158 1 2 0.0 29.0 10.5 -39.64495395710111 0 0 0
159 1 2 0.0 25.5 10.5 -37.98664156192342 0 0 0
160 1 6 0.0 25.5 7.0 -36.32832916674573 0 0 0
161 1 2 0.0 29.0 7.0 -34.670016771568044 0 0 0
162 1 11 0.0 29.0 10.5 -33.0117043763903 0 0 0
163 1 2 0.0 25.5 10.5 -31.35339198121261 0 0 0
164 1 15 0.0 25.5 7.0 -29.69507958603492 0 0 0
165 1 18 0.0 29.0 7.0 -28.036767190857233 0 0 0
166 1 17 0.0 29.0 10.5 -26.378454795679488 0 0 0
167 1 17 0.0 25.5 10.5 -24.7201424005018 0 0 0
168 1 7 -1.0 25.5 7.0 -23.06183000532411 0 0 0
169 1 11 0.0 29.0 7.0 -21.403517610146423 0 0 0
170 1 7 -1.0 29.0 10.5 -19.745205214968735 0 0 0
171 1 18 0.0 25.5 10.5 -18.08689281979099 0 0 0
172 1 7 -1.0 25.5 7.0 -16.4285804246133 0 0 0
173 1 8 -1.0 29.0 7.0 -14.770268029435613 0 0 0
174 1 19 0.0 29.0 10.5 -13.111955634257924 0 0 0
175 1 1 0.0 25.5 10.5 -11.453643239080236 0 0 0
176 1 12 0.0 25.5 7.0 -9.79533084390249 0 0 0
177 1 5 1.0 29.0 7.0 -8.137018448724803 0 0 0
178 1 4 0.0 29.0 10.5 -6.478706053547114 0 0 0
179 1 2 0.0 25.5 10.5 -4.820393658369426 0 0 0
180 1 2 0.0 25.5 7.0 -3.1620812631917374 0 0 0
181 1 11 0.0 29.0 7.0 -1.5037688680139922 0 0 0
182 1 6 0.0 29.0 10.5 0.15454352716369613 0 0 0
183 1 2 0.0 25.5 10.5 1.8128559223413845 0 0 0
184 1 15 0.0 25.5 7.0 3.471168317519073 0 0 0
185 1 5 1.0 29.0 7.0 5.129480712696761 0 0 0
186 1 5 1.0 29.0 10.5 6.787793107874506 0 0 0
187 1 18 0.0 25.5 10.5 8.446105503052195 0 0 0
188 1 10 0.0 25.5 7.0 10.104417898229883 0 0 0
189 1 11 0.0 29.0 7.0 11.762730293407571 0 0 0
190 1 15 0.0 29.0 10.5 13.42104268858526 0 0 0
191 1 2 0.0 25.5 10.5 15.079355083763005 0 0 0
192 1 4 0.0 25.5 7.0 16.737667478940693 0 0 0
193 1 2 0.0 29.0 7.0 18.39597987411838 0 0 0
194 1 17 0.0 29.0 10.5 20.05429226929607 0 0 0
195 1 2 0.0 25.5 10.5 21.71260466447376 0 0 0
196 1 7 -1.0 25.5 7.0 23.370917059651504 0 0 0
197 1 4 0.0 29.0 7.0 25.029229454829192 0 0 0
198 1 15 0.0 29.0 10.5 26.68754185000688 0 0 0
199 1 12 0.0 25.5 10.5 28.34585424518457 0 0 0
200 1 15 0.0 25.5 7.0 30.004166640362257 0 0 0
201 1 5 1.0 29.0 7.0 31.662479035540002 0 0 0
202 1 15 0.0 29.0 10.5 33.32079143071769 0 0 0
203 1 2 0.0 25.5 10.5 34.97910382589538 0 0 0
204 1 15 0.0 25.5 7.0 36.63741622107307 0 0 0
205 1 2 0.0 29.0 7.0 38.295728616250756 0 0 0
206 1 15 0.0 29.0 10.5 39.9540410114285 0 0 0
207 1 8 -1.0 25.5 10.5 41.61235340660619 0 0 0
208 1 5 1.0 25.5 7.0 43.27066580178388 0 0 0
209 1 2 0.0 29.0 7.0 44.928978196961566 0 0 0
210 1 2 0.0 29.0 10.5 46.587290592139254 0 0 0
211 1 9 0.0 25.5 10.5 48.245602987317 0 0 0
212 1 3 1.0 25.5 7.0 49.90391538249469 0 0 0
213 1 2 0.0 29.0 7.0 51.562227777672376 0 0 0
214 1 11 0.0 29.0 10.5 53.220540172850065 0 0 0
215 1 17 0.0 25.5 10.5 54.87885256802775 0 0 0
216 1 8 -1.0 25.5 7.0 56.5371649632055 0 0 0
217 1 8 -1.0 29.0 7.0 58.19547735838319 0 0 0
218 1 10 0.0 29.0 10.5 59.853789753560875 0 0 0
219 1 20 0.0 25.5 10.5 61.51210214873856 0 0 0
220 1 4 0.0 25.5 7.0 63.17041454391625 0 0 0
221 1 2 0.0 29.0 7.0 64.828726939094 0 0 0
222 1 15 0.0 29.0 10.5 66.48703933427169 0 0 0
223 1 2 0.0 25.5 10.5 68.14535172944937 0 0 0
224 1 3 1.0 25.5 7.0 69.80366412462706 0 0 0
225 1 17 0.0 29.0 7.0 71.46197651980481 0 0 0
226 1 15 0.0 29.0 10.5 73.1202889149825 0 0 0
227 1 13 0.0 25.5 10.5 74.77860131016018 0 0 0
228 1 3 1.0 25.5 7.0 76.43691370533787 0 0 0
229 1 15 0.0 29.0 7.0 78.09522610051556 0 0 0
230 1 8 -1.0 29.0 10.5 79.7535384956933 0 0 0
231 1 6 0.0 25.5 10.5 81.411850890871 0 0 0
232 1 8 -1.0 25.5 7.0 83.07016328604868 0 0 0
233 1 2 0.0 29.0 7.0 84.72847568122637 0 0 0
234 1 2 0.0 29.0 10.5 86.38678807640406 0 0 0
235 1 8 -1.0 25.5 10.5 88.0451004715818 0 0 0
236 1 15 0.0 25.5 7.0 89.70341286675949 0 0 0
237 2 1 0.0 47.5 7.0 -300.0 0 0 0
238 2 2 0.0 47.5 10.5 -298.3416876048223 0 0 0
239 2 7 -1.0 44.0 10.5 -296.6833752096446 0 0 0
240 2 8 -1.0 44.0 7.0 -295.0250628144669 0 0 0
241 2 7 -1.0 47.5 7.0 -293.3667504192892 0 0 0
242 2 13 0.0 47.5 10.5 -291.7084380241115 0 0 0
243 2 8 -1.0 44.0 10.5 -290.0501256289338 0 0 0
244 2 6 0.0 44.0 7.0 -288.3918132337561 0 0 0
245 2 8 -1.0 47.5 7.0 -286.7335008385784 0 0 0
246 2 20 0.0 47.5 10.5 -285.0751884434007 0 0 0
247 2 17 0.0 44.0 10.5 -283.416876048223 0 0 0
248 2 18 0.0 44.0 7.0 -281.7585636530453 0 0 0
249 2 16 0.5 47.5 7.0 -280.1002512578676 0 0 0
250 2 1 0.0 47.5 10.5 -278.4419388626899 0 0 0
251 2 15 0.0 44.0 10.5 -276.7836264675122 0 0 0
252 2 15 0.0 44.0 7.0 -275.1253140723345 0 0 0
253 2 9 0.0 47.5 7.0 -273.4670016771568 0 0 0
254 2 10 0.0 47.5 10.5 -271.8086892819791 0 0 0
255 2 18 0.0 44.0 10.5 -270.1503768868014 0 0 0
256 2 20 0.0 44.0 7.0 -268.4920644916237 0 0 0
257 2 6 0.0 47.5 7.0 -266.833752096446 0 0 0
258 2 8 -1.0 47.5 10.5 -265.1754397012683 0 0 0
259 2 3 1.0 44.0 10.5 -263.51712730609063 0 0 0
260 2 7 -1.0 44.0 7.0 -261.8588149109129 0 0 0
261 2 5 1.0 47.5 7.0 -260.2005025157352 0 0 0
262 2 9 0.0 47.5 10.5 -258.5421901205575 0 0 0
263 2 15 0.0 44.0 10.5 -256.8838777253798 0 0 0
264 2 2 0.0 44.0 7.0 -255.2255653302021 0 0 0
265 2 8 -1.0 47.5 7.0 -253.56725293502438 0 0 0
266 2 17 0.0 47.5 10.5 -251.9089405398467 0 0 0
267 2 2 0.0 44.0 10.5 -250.250628144669 0 0 0
268 2 7 -1.0 44.0 7.0 -248.59231574949132 0 0 0
269 2 17 0.0 47.5 7.0 -246.9340033543136 0 0 0
270 2 6 0.0 47.5 10.5 -245.2756909591359 0 0 0
271 2 17 0.0 44.0 10.5 -243.6173785639582 0 0 0
272 2 5 1.0 44.0 7.0 -241.9590661687805 0 0 0
273 2 4 0.0 47.5 7.0 -240.30075377360282 0 0 0
274 2 18 0.0 47.5 10.5 -238.6424413784251 0 0 0
275 2 6 0.0 44.0 10.5 -236.9841289832474 0 0 0
276 2 15 0.0 44.0 7.0 -235.3258165880697 0 0 0
277 2 15 0.0 47.5 7.0 -233.667504192892 0 0 0
278 2 15 0.0 47.5 10.5 -232.00919179771432 0 0 0
279 2 8 -1.0 44.0 10.5 -230.3508794025366 0 0 0
280 2 1 0.0 44.0 7.0 -228.6925670073589 0 0 0
281 2 7 -1.0 47.5 7.0 -227.0342546121812 0 0 0
282 2 7 -1.0 47.5 10.5 -225.3759422170035 0 0 0
283 2 2 0.0 44.0 10.5 -223.71762982182582 0 0 0
284 2 18 0.0 44.0 7.0 -222.0593174266481 0 0 0
285 2 15 0.0 47.5 7.0 -220.4010050314704 0 0 0
286 2 5 1.0 47.5 10.5 -218.7426926362927 0 0 0
287 2 5 1.0 44.0 10.5 -217.084380241115 0 0 0
288 2 7 -1.0 44.0 7.0 -215.42606784593733 0 0 0
289 2 16 0.5 47.5 7.0 -213.7677554507596 0 0 0
290 2 6 0.0 47.5 10.5 -212.1094430555819 0 0 0
291 2 1 0.0 44.0 10.5 -210.4511306604042 0 0 0
292 2 3 1.0 44.0 7.0 -208.79281826522651 0 0 0
293 2 15 0.0 47.5 7.0 -207.1345058700488 0 0 0
294 2 2 0.0 47.5 10.5 -205.4761934748711 0 0 0
295 2 6 0.0 44.0 10.5 -203.8178810796934 0 0 0
296 2 6 0.0 44.0 7.0 -202.1595686845157 0 0 0
297 2 15 0.0 47.5 7.0 -200.50125628933802 0 0 0
298 2 2 0.0 47.5 10.5 -198.8429438941603 0 0 0
299 2 5 1.0 44.0 10.5 -197.1846314989826 0 0 0
300 2 17 0.0 44.0 7.0 -195.5263191038049 0 0 0
301 2 6 0.0 47.5 7.0 -193.8680067086272 0 0 0
302 2 2 0.0 47.5 10.5 -192.20969431344952 0 0 0
303 2 17 0.0 44.0 10.5 -190.5513819182718 0 0 0
304 2 5 1.0 44.0 7.0 -188.8930695230941 0 0 0
305 2 7 -1.0 47.5 7.0 -187.2347571279164 0 0 0
306 2 6 0.0 47.5 10.5 -185.5764447327387 0 0 0
307 2 2 0.0 44.0 10.5 -183.91813233756102 0 0 0
308 2 8 -1.0 44.0 7.0 -182.2598199423833 0 0 0
309 2 19 0.0 47.5 7.0 -180.6015075472056 0 0 0
310 2 17 0.0 47.5 10.5 -178.9431951520279 0 0 0
311 2 3 1.0 44.0 10.5 -177.2848827568502 0 0 0
312 2 5 1.0 44.0 7.0 -175.62657036167252 0 0 0
313 2 7 -1.0 47.5 7.0 -173.9682579664948 0 0 0
314 2 17 0.0 47.5 10.5 -172.3099455713171 0 0 0
315 2 4 0.0 44.0 10.5 -170.6516331761394 0 0 0
316 2 15 0.0 44.0 7.0 -168.9933207809617 0 0 0
317 2 4 0.0 47.5 7.0 -167.33500838578402 0 0 0
318 2 1 0.0 47.5 10.5 -165.6766959906063 0 0 0
319 2 2 0.0 44.0 10.5 -164.01838359542862 0 0 0
320 2 2 0.0 44.0 7.0 -162.3600712002509 0 0 0
321 2 6 0.0 47.5 7.0 -160.7017588050732 0 0 0
322 2 2 0.0 47.5 10.5 -159.0434464098955 0 0 0
323 2 10 0.0 44.0 10.5 -157.3851340147178 0 0 0
324 2 2 0.0 44.0 7.0 -155.72682161954012 0 0 0
325 2 3 1.0 47.5 7.0 -154.0685092243624 0 0 0
326 2 15 0.0 47.5 10.5 -152.4101968291847 0 0 0
327 2 6 0.0 44.0 10.5 -150.751884434007 0 0 0
328 2 2 0.0 44.0 7.0 -149.0935720388293 0 0 0
329 2 17 0.0 47.5 7.0 -147.43525964365162 0 0 0
330 2 5 1.0 47.5 10.5 -145.7769472484739 0 0 0
331 2 2 0.0 44.0 10.5 -144.11863485329621 0 0 0
332 2 6 0.0 44.0 7.0 -142.4603224581185 0 0 0
333 2 15 0.0 47.5 7.0 -140.8020100629408 0 0 0
334 2 17 0.0 47.5 10.5 -139.14369766776312 0 0 0
335 2 15 0.0 44.0 10.5 -137.4853852725854 0 0 0
336 2 5 1.0 44.0 7.0 -135.82707287740772 0 0 0
337 2 6 0.0 47.5 7.0 -134.16876048223 0 0 0
338 2 8 -1.0 47.5 10.5 -132.5104480870523 0 0 0
339 2 7 -1.0 44.0 10.5 -130.85213569187462 0 0 0
340 2 2 0.0 44.0 7.0 -129.1938232966969 0 0 0
341 2 7 -1.0 47.5 7.0 -127.53551090151922 0 0 0
342 2 15 0.0 47.5 10.5 -125.8771985063415 0 0 0
343 2 15 0.0 44.0 10.5 -124.21888611116381 0 0 0
344 2 2 0.0 44.0 7.0 -122.56057371598612 0 0 0
345 2 6 0.0 47.5 7.0 -120.9022613208084 0 0 0
346 2 13 0.0 47.5 10.5 -119.24394892563072 0 0 0
347 2 5 1.0 44.0 10.5 -117.585636530453 0 0 0
348 2 8 -1.0 44.0 7.0 -115.92732413527531 0 0 0
349 2 15 0.0 47.5 7.0 -114.2690117400976 0 0 0
350 2 15 0.0 47.5 10.5 -112.61069934491991 0 0 0
351 2 17 0.0 44.0 10.5 -110.95238694974222 0 0 0
352 2 7 -1.0 44.0 7.0 -109.2940745545645 0 0 0
353 2 19 0.0 47.5 7.0 -107.63576215938681 0 0 0
354 2 8 -1.0 47.5 10.5 -105.9774497642091 0 0 0
355 2 7 -1.0 44.0 10.5 -104.31913736903141 0 0 0
356 2 17 0.0 44.0 7.0 -102.66082497385372 0 0 0
357 2 18 0.0 47.5 7.0 -101.002512578676 0 0 0
358 2 4 0.0 47.5 10.5 -99.34420018349832 0 0 0
359 2 5 1.0 44.0 10.5 -97.6858877883206 0 0 0
360 2 17 0.0 44.0 7.0 -96.02757539314291 0 0 0
361 2 5 1.0 47.5 7.0 -94.36926299796522 0 0 0
362 2 2 0.0 47.5 10.5 -92.7109506027875 0 0 0
363 2 6 0.0 44.0 10.5 -91.05263820760982 0 0 0
364 2 15 0.0 44.0 7.0 -89.3943258124321 0 0 0
365 2 3 1.0 47.5 7.0 -87.73601341725441 0 0 0
366 2 5 1.0 47.5 10.5 -86.07770102207672 0 0 0
367 2 2 0.0 44.0 10.5 -84.419388626899 0 0 0
368 2 2 0.0 44.0 7.0 -82.76107623172132 0 0 0
369 2 9 0.0 47.5 7.0 -81.1027638365436 0 0 0
370 2 5 1.0 47.5 10.5 -79.44445144136591 0 0 0
371 2 7 -1.0 44.0 10.5 -77.78613904618823 0 0 0
372 2 2 0.0 44.0 7.0 -76.12782665101051 0 0 0
373 2 17 0.0 47.5 7.0 -74.46951425583282 0 0 0
374 2 17 0.0 47.5 10.5 -72.8112018606551 0 0 0
375 2 15 0.0 44.0 10.5 -71.15288946547741 0 0 0
376 2 8 -1.0 44.0 7.0 -69.49457707029973 0 0 0
377 2 6 0.0 47.5 7.0 -67.83626467512201 0 0 0
378 2 15 0.0 47.5 10.5 -66.17795227994432 0 0 0
379 2 2 0.0 44.0 10.5 -64.5196398847666 0 0 0
380 2 18 0.0 44.0 7.0 -62.861327489588916 0 0 0
381 2 9 0.0 47.5 7.0 -61.20301509441123 0 0 0
382 2 5 1.0 47.5 10.5 -59.54470269923351 0 0 0
383 2 5 1.0 44.0 10.5 -57.88639030405582 0 0 0
384 2 2 0.0 44.0 7.0 -56.228077908878106 0 0 0
385 2 2 0.0 47.5 7.0 -54.56976551370042 0 0 0
386 2 5 1.0 47.5 10.5 -52.9114531185227 0 0 0
387 2 2 0.0 44.0 10.5 -51.25314072334501 0 0 0
388 2 15 0.0 44.0 7.0 -49.594828328167324 0 0 0
389 2 6 0.0 47.5 7.0 -47.93651593298961 0 0 0
390 2 5 1.0 47.5 10.5 -46.27820353781192 0 0 0
391 2 2 0.0 44.0 10.5 -44.6198911426342 0 0 0
392 2 19 0.0 44.0 7.0 -42.96157874745654 0 0 0
393 2 5 1.0 47.5 7.0 -41.3032663522788 0 0 0
394 2 2 0.0 47.5 10.5 -39.64495395710111 0 0 0
395 2 2 0.0 44.0 10.5 -37.98664156192342 0 0 0
396 2 6 0.0 44.0 7.0 -36.32832916674573 0 0 0
397 2 2 0.0 47.5 7.0 -34.670016771568044 0 0 0
398 2 11 0.0 47.5 10.5 -33.0117043763903 0 0 0
399 2 2 0.0 44.0 10.5 -31.35339198121261 0 0 0
400 2 15 0.0 44.0 7.0 -29.69507958603492 0 0 0
401 2 18 0.0 47.5 7.0 -28.036767190857233 0 0 0
402 2 17 0.0 47.5 10.5 -26.378454795679488 0 0 0
403 2 17 0.0 44.0 10.5 -24.7201424005018 0 0 0
404 2 7 -1.0 44.0 7.0 -23.06183000532411 0 0 0
405 2 11 0.0 47.5 7.0 -21.403517610146423 0 0 0
406 2 7 -1.0 47.5 10.5 -19.745205214968735 0 0 0
407 2 18 0.0 44.0 10.5 -18.08689281979099 0 0 0
408 2 7 -1.0 44.0 7.0 -16.4285804246133 0 0 0
409 2 8 -1.0 47.5 7.0 -14.770268029435613 0 0 0
410 2 19 0.0 47.5 10.5 -13.111955634257924 0 0 0
411 2 1 0.0 44.0 10.5 -11.453643239080236 0 0 0
412 2 12 0.0 44.0 7.0 -9.79533084390249 0 0 0
413 2 5 1.0 47.5 7.0 -8.137018448724803 0 0 0
414 2 4 0.0 47.5 10.5 -6.478706053547114 0 0 0
415 2 2 0.0 44.0 10.5 -4.820393658369426 0 0 0
416 2 2 0.0 44.0 7.0 -3.1620812631917374 0 0 0
417 2 11 0.0 47.5 7.0 -1.5037688680139922 0 0 0
418 2 6 0.0 47.5 10.5 0.15454352716369613 0 0 0
419 2 2 0.0 44.0 10.5 1.8128559223413845 0 0 0
420 2 15 0.0 44.0 7.0 3.471168317519073 0 0 0
421 2 5 1.0 47.5 7.0 5.129480712696761 0 0 0
422 2 5 1.0 47.5 10.5 6.787793107874506 0 0 0
423 2 18 0.0 44.0 10.5 8.446105503052195 0 0 0
424 2 10 0.0 44.0 7.0 10.104417898229883 0 0 0
425 2 11 0.0 47.5 7.0 11.762730293407571 0 0 0
426 2 15 0.0 47.5 10.5 13.42104268858526 0 0 0
427 2 2 0.0 44.0 10.5 15.079355083763005 0 0 0
428 2 4 0.0 44.0 7.0 16.737667478940693 0 0 0
429 2 2 0.0 47.5 7.0 18.39597987411838 0 0 0
430 2 17 0.0 47.5 10.5 20.05429226929607 0 0 0
431 2 2 0.0 44.0 10.5 21.71260466447376 0 0 0
432 2 7 -1.0 44.0 7.0 23.370917059651504 0 0 0
433 2 4 0.0 47.5 7.0 25.029229454829192 0 0 0
434 2 15 0.0 47.5 10.5 26.68754185000688 0 0 0
435 2 12 0.0 44.0 10.5 28.34585424518457 0 0 0
436 2 15 0.0 44.0 7.0 30.004166640362257 0 0 0
437 2 5 1.0 47.5 7.0 31.662479035540002 0 0 0
438 2 15 0.0 47.5 10.5 33.32079143071769 0 0 0
439 2 2 0.0 44.0 10.5 34.97910382589538 0 0 0
440 2 15 0.0 44.0 7.0 36.63741622107307 0 0 0
441 2 2 0.0 47.5 7.0 38.295728616250756 0 0 0
442 2 15 0.0 47.5 10.5 39.9540410114285 0 0 0
443 2 8 -1.0 44.0 10.5 41.61235340660619 0 0 0
444 2 5 1.0 44.0 7.0 43.27066580178388 0 0 0
445 2 2 0.0 47.5 7.0 44.928978196961566 0 0 0
446 2 2 0.0 47.5 10.5 46.587290592139254 0 0 0
447 2 9 0.0 44.0 10.5 48.245602987317 0 0 0
448 2 3 1.0 44.0 7.0 49.90391538249469 0 0 0
449 2 2 0.0 47.5 7.0 51.562227777672376 0 0 0
450 2 11 0.0 47.5 10.5 53.220540172850065 0 0 0
451 2 17 0.0 44.0 10.5 54.87885256802775 0 0 0
452 2 8 -1.0 44.0 7.0 56.5371649632055 0 0 0
453 2 8 -1.0 47.5 7.0 58.19547735838319 0 0 0
454 2 10 0.0 47.5 10.5 59.853789753560875 0 0 0
455 2 20 0.0 44.0 10.5 61.51210214873856 0 0 0
456 2 4 0.0 44.0 7.0 63.17041454391625 0 0 0
457 2 2 0.0 47.5 7.0 64.828726939094 0 0 0
458 2 15 0.0 47.5 10.5 66.48703933427169 0 0 0
459 2 2 0.0 44.0 10.5 68.14535172944937 0 0 0
460 2 3 1.0 44.0 7.0 69.80366412462706 0 0 0
461 2 17 0.0 47.5 7.0 71.46197651980481 0 0 0
462 2 15 0.0 47.5 10.5 73.1202889149825 0 0 0
463 2 13 0.0 44.0 10.5 74.77860131016018 0 0 0
464 2 3 1.0 44.0 7.0 76.43691370533787 0 0 0
465 2 15 0.0 47.5 7.0 78.09522610051556 0 0 0
466 2 8 -1.0 47.5 10.5 79.7535384956933 0 0 0
467 2 6 0.0 44.0 10.5 81.411850890871 0 0 0
468 2 8 -1.0 44.0 7.0 83.07016328604868 0 0 0
469 2 2 0.0 47.5 7.0 84.72847568122637 0 0 0
470 2 2 0.0 47.5 10.5 86.38678807640406 0 0 0
471 2 8 -1.0 44.0 10.5 88.0451004715818 0 0 0
472 2 15 0.0 44.0 7.0 89.70341286675949 0 0 0
473 3 1 0.0 66.0 7.0 -300.0 0 0 0
474 3 2 0.0 66.0 10.5 -298.3416876048223 0 0 0
475 3 7 -1.0 62.5 10.5 -296.6833752096446 0 0 0
476 3 8 -1.0 62.5 7.0 -295.0250628144669 0 0 0
477 3 7 -1.0 66.0 7.0 -293.3667504192892 0 0 0
478 3 13 0.0 66.0 10.5 -291.7084380241115 0 0 0
479 3 8 -1.0 62.5 10.5 -290.0501256289338 0 0 0
480 3 6 0.0 62.5 7.0 -288.3918132337561 0 0 0
481 3 8 -1.0 66.0 7.0 -286.7335008385784 0 0 0
482 3 20 0.0 66.0 10.5 -285.0751884434007 0 0 0
483 3 17 0.0 62.5 10.5 -283.416876048223 0 0 0
484 3 18 0.0 62.5 7.0 -281.7585636530453 0 0 0
485 3 16 0.5 66.0 7.0 -280.1002512578676 0 0 0
486 3 1 0.0 66.0 10.5 -278.4419388626899 0 0 0
487 3 15 0.0 62.5 10.5 -276.7836264675122 0 0 0
488 3 15 0.0 62.5 7.0 -275.1253140723345 0 0 0
489 3 9 0.0 66.0 7.0 -273.4670016771568 0 0 0
490 3 10 0.0 66.0 10.5 -271.8086892819791 0 0 0
491 3 18 0.0 62.5 10.5 -270.1503768868014 0 0 0
492 3 20 0.0 62.5 7.0 -268.4920644916237 0 0 0
493 3 6 0.0 66.0 7.0 -266.833752096446 0 0 0
494 3 8 -1.0 66.0 10.5 -265.1754397012683 0 0 0
495 3 3 1.0 62.5 10.5 -263.51712730609063 0 0 0
496 3 7 -1.0 62.5 7.0 -261.8588149109129 0 0 0
497 3 5 1.0 66.0 7.0 -260.2005025157352 0 0 0
498 3 9 0.0 66.0 10.5 -258.5421901205575 0 0 0
499 3 15 0.0 62.5 10.5 -256.8838777253798 0 0 0
500 3 2 0.0 62.5 7.0 -255.2255653302021 0 0 0
501 3 8 -1.0 66.0 7.0 -253.56725293502438 0 0 0
502 3 17 0.0 66.0 10.5 -251.9089405398467 0 0 0
503 3 2 0.0 62.5 10.5 -250.250628144669 0 0 0
504 3 7 -1.0 62.5 7.0 -248.59231574949132 0 0 0
505 3 17 0.0 66.0 7.0 -246.9340033543136 0 0 0
506 3 6 0.0 66.0 10.5 -245.2756909591359 0 0 0
507 3 17 0.0 62.5 10.5 -243.6173785639582 0 0 0
508 3 5 1.0 62.5 7.0 -241.9590661687805 0 0 0
509 3 4 0.0 66.0 7.0 -240.30075377360282 0 0 0
510 3 18 0.0 66.0 10.5 -238.6424413784251 0 0 0
511 3 6 0.0 62.5 10.5 -236.9841289832474 0 0 0
512 3 15 0.0 62.5 7.0 -235.3258165880697 0 0 0
513 3 15 0.0 66.0 7.0 -233.667504192892 0 0 0
514 3 15 0.0 66.0 10.5 -232.00919179771432 0 0 0
515 3 8 -1.0 62.5 10.5 -230.3508794025366 0 0 0
516 3 1 0.0 62.5 7.0 -228.6925670073589 0 0 0
517 3 7 -1.0 66.0 7.0 -227.0342546121812 0 0 0
518 3 7 -1.0 66.0 10.5 -225.3759422170035 0 0 0
519 3 2 0.0 62.5 10.5 -223.71762982182582 0 0 0
520 3 18 0.0 62.5 7.0 -222.0593174266481 0 0 0
521 3 15 0.0 66.0 7.0 -220.4010050314704 0 0 0
522 3 5 1.0 66.0 10.5 -218.7426926362927 0 0 0
523 3 5 1.0 62.5 10.5 -217.084380241115 0 0 0
524 3 7 -1.0 62.5 7.0 -215.42606784593733 0 0 0
525 3 16 0.5 66.0 7.0 -213.7677554507596 0 0 0
526 3 6 0.0 66.0 10.5 -212.1094430555819 0 0 0
527 3 1 0.0 62.5 10.5 -210.4511306604042 0 0 0
528 3 3 1.0 62.5 7.0 -208.79281826522651 0 0 0
529 3 15 0.0 66.0 7.0 -207.1345058700488 0 0 0
530 3 2 0.0 66.0 10.5 -205.4761934748711 0 0 0
531 3 6 0.0 62.5 10.5 -203.8178810796934 0 0 0
532 3 6 0.0 62.5 7.0 -202.1595686845157 0 0 0
533 3 15 0.0 66.0 7.0 -200.50125628933802 0 0 0
534 3 2 0.0 66.0 10.5 -198.8429438941603 0 0 0
535 3 5 1.0 62.5 10.5 -197.1846314989826 0 0 0
536 3 17 0.0 62.5 7.0 -195.5263191038049 0 0 0
537 3 6 0.0 66.0 7.0 -193.8680067086272 0 0 0
538 3 2 0.0 66.0 10.5 -192.20969431344952 0 0 0
539 3 17 0.0 62.5 10.5 -190.5513819182718 0 0 0
540 3 5 1.0 62.5 7.0 -188.8930695230941 0 0 0
541 3 7 -1.0 66.0 7.0 -187.2347571279164 0 0 0
542 3 6 0.0 66.0 10.5 -185.5764447327387 0 0 0
543 3 2 0.0 62.5 10.5 -183.91813233756102 0 0 0
544 3 8 -1.0 62.5 7.0 -182.2598199423833 0 0 0
545 3 19 0.0 66.0 7.0 -180.6015075472056 0 0 0
546 3 17 0.0 66.0 10.5 -178.9431951520279 0 0 0
547 3 3 1.0 62.5 10.5 -177.2848827568502 0 0 0
548 3 5 1.0 62.5 7.0 -175.62657036167252 0 0 0
549 3 7 -1.0 66.0 7.0 -173.9682579664948 0 0 0
550 3 17 0.0 66.0 10.5 -172.3099455713171 0 0 0
551 3 4 0.0 62.5 10.5 -170.6516331761394 0 0 0
552 3 15 0.0 62.5 7.0 -168.9933207809617 0 0 0
553 3 4 0.0 66.0 7.0 -167.33500838578402 0 0 0
554 3 1 0.0 66.0 10.5 -165.6766959906063 0 0 0
555 3 2 0.0 62.5 10.5 -164.01838359542862 0 0 0
556 3 2 0.0 62.5 7.0 -162.3600712002509 0 0 0
557 3 6 0.0 66.0 7.0 -160.7017588050732 0 0 0
558 3 2 0.0 66.0 10.5 -159.0434464098955 0 0 0
559 3 10 0.0 62.5 10.5 -157.3851340147178 0 0 0
560 3 2 0.0 62.5 7.0 -155.72682161954012 0 0 0
561 3 3 1.0 66.0 7.0 -154.0685092243624 0 0 0
562 3 15 0.0 66.0 10.5 -152.4101968291847 0 0 0
563 3 6 0.0 62.5 10.5 -150.751884434007 0 0 0
564 3 2 0.0 62.5 7.0 -149.0935720388293 0 0 0
565 3 17 0.0 66.0 7.0 -147.43525964365162 0 0 0
566 3 5 1.0 66.0 10.5 -145.7769472484739 0 0 0
567 3 2 0.0 62.5 10.5 -144.11863485329621 0 0 0
568 3 6 0.0 62.5 7.0 -142.4603224581185 0 0 0
569 3 15 0.0 66.0 7.0 -140.8020100629408 0 0 0
570 3 17 0.0 66.0 10.5 -139.14369766776312 0 0 0
571 3 15 0.0 62.5 10.5 -137.4853852725854 0 0 0
572 3 5 1.0 62.5 7.0 -135.82707287740772 0 0 0
573 3 6 0.0 66.0 7.0 -134.16876048223 0 0 0
574 3 8 -1.0 66.0 10.5 -132.5104480870523 0 0 0
575 3 7 -1.0 62.5 10.5 -130.85213569187462 0 0 0
576 3 2 0.0 62.5 7.0 -129.1938232966969 0 0 0
577 3 7 -1.0 66.0 7.0 -127.53551090151922 0 0 0
578 3 15 0.0 66.0 10.5 -125.8771985063415 0 0 0
579 3 15 0.0 62.5 10.5 -124.21888611116381 0 0 0
580 3 2 0.0 62.5 7.0 -122.56057371598612 0 0 0
581 3 6 0.0 66.0 7.0 -120.9022613208084 0 0 0
582 3 13 0.0 66.0 10.5 -119.24394892563072 0 0 0
583 3 5 1.0 62.5 10.5 -117.585636530453 0 0 0
584 3 8 -1.0 62.5 7.0 -115.92732413527531 0 0 0
585 3 15 0.0 66.0 7.0 -114.2690117400976 0 0 0
586 3 15 0.0 66.0 10.5 -112.61069934491991 0 0 0
587 3 17 0.0 62.5 10.5 -110.95238694974222 0 0 0
588 3 7 -1.0 62.5 7.0 -109.2940745545645 0 0 0
589 3 19 0.0 66.0 7.0 -107.63576215938681 0 0 0
590 3 8 -1.0 66.0 10.5 -105.9774497642091 0 0 0
591 3 7 -1.0 62.5 10.5 -104.31913736903141 0 0 0
592 3 17 0.0 62.5 7.0 -102.66082497385372 0 0 0
593 3 18 0.0 66.0 7.0 -101.002512578676 0 0 0
594 3 4 0.0 66.0 10.5 -99.34420018349832 0 0 0
595 3 5 1.0 62.5 10.5 -97.6858877883206 0 0 0
596 3 17 0.0 62.5 7.0 -96.02757539314291 0 0 0
597 3 5 1.0 66.0 7.0 -94.36926299796522 0 0 0
598 3 2 0.0 66.0 10.5 -92.7109506027875 0 0 0
599 3 6 0.0 62.5 10.5 -91.05263820760982 0 0 0
600 3 15 0.0 62.5 7.0 -89.3943258124321 0 0 0
601 3 3 1.0 66.0 7.0 -87.73601341725441 0 0 0
602 3 5 1.0 66.0 10.5 -86.07770102207672 0 0 0
603 3 2 0.0 62.5 10.5 -84.419388626899 0 0 0
604 3 2 0.0 62.5 7.0 -82.76107623172132 0 0 0
605 3 9 0.0 66.0 7.0 -81.1027638365436 0 0 0
606 3 5 1.0 66.0 10.5 -79.44445144136591 0 0 0
607 3 7 -1.0 62.5 10.5 -77.78613904618823 0 0 0
608 3 2 0.0 62.5 7.0 -76.12782665101051 0 0 0
609 3 17 0.0 66.0 7.0 -74.46951425583282 0 0 0
610 3 17 0.0 66.0 10.5 -72.8112018606551 0 0 0
611 3 15 0.0 62.5 10.5 -71.15288946547741 0 0 0
612 3 8 -1.0 62.5 7.0 -69.49457707029973 0 0 0
613 3 6 0.0 66.0 7.0 -67.83626467512201 0 0 0
614 3 15 0.0 66.0 10.5 -66.17795227994432 0 0 0
615 3 2 0.0 62.5 10.5 -64.5196398847666 0 0 0
616 3 18 0.0 62.5 7.0 -62.861327489588916 0 0 0
617 3 9 0.0 66.0 7.0 -61.20301509441123 0 0 0
618 3 5 1.0 66.0 10.5 -59.54470269923351 0 0 0
619 3 5 1.0 62.5 10.5 -57.88639030405582 0 0 0
620 3 2 0.0 62.5 7.0 -56.228077908878106 0 0 0
621 3 2 0.0 66.0 7.0 -54.56976551370042 0 0 0
622 3 5 1.0 66.0 10.5 -52.9114531185227 0 0 0
623 3 2 0.0 62.5 10.5 -51.25314072334501 0 0 0
624 3 15 0.0 62.5 7.0 -49.594828328167324 0 0 0
625 3 6 0.0 66.0 7.0 -47.93651593298961 0 0 0