# LAMMPS data file from Python

111 atoms
110 bonds
40 atom types
1 bond types
0.0 600.0 xlo xhi
0.0 600.0 ylo yhi
0.0 600.0 zlo zhi

Masses

1   131.199997
2   57.0499992
3   128.199997
4   101.099998
5   156.199997
6   71.0800018
7   115.099998
8   129.100006
9   163.199997
10   99.0699997
11   113.199997
12   128.100006
13   186.199997
14   147.199997
15   87.0800018
16   137.100006
17   114.099998
18   97.1200027
19   103.099998
20   113.199997
21   131.199997
22   57.0499992
23   128.199997
24   101.099998
25   156.199997
26   71.0800018
27   115.099998
28   129.100006
29   163.199997
30   99.0699997
31   113.199997
32   128.100006
33   186.199997
34   147.199997
35   87.0800018
36   137.100006
37   114.099998
38   97.1200027
39   103.099998
40   113.199997

Atoms

1 1 1 0.0 304.0 300.0 300.0
2 1 15 0.0 307.719105943553 301.4724982107387 300.0895353906273
3 1 7 0.0 310.63498045323865 304.21068663445345 300.2686061718819
4 1 6 0.0 312.10747866397736 307.92979257800647 300.55213490886837
5 1 6 0.0 312.10747866397736 311.92979257800647 300.9251990364822
6 1 10 0.0 310.63498045323865 315.6488985215595 301.3877985547233
7 1 7 0.0 307.719105943553 318.38708694527423 301.95485602869627
8 1 4 0.0 304.0 319.85958515601294 302.61144889329654
9 1 15 0.0 300.0 319.85958515601294 303.3575771485241
10 1 15 0.0 296.280894056447 318.38708694527423 304.193240794379
11 1 8 0.0 293.36501954676135 315.6488985215595 305.1184398308612
12 1 20 0.0 291.89252133602264 311.92979257800647 306.1480968230752
13 1 4 0.0 291.89252133602264 307.92979257800647 307.2672892059166
14 1 4 0.0 293.36501954676135 304.21068663445345 308.4760169793853
15 1 3 0.0 296.280894056447 301.4724982107387 309.78920270858583
16 1 7 0.0 300.0 300.0 311.1919238284137
17 1 11 0.0 304.0 300.0 311.1919238284137
18 1 3 0.0 307.719105943553 301.4724982107387 311.281459219041
19 1 8 0.0 310.63498045323865 304.21068663445345 311.4605300002956
20 1 3 0.0 312.10747866397736 307.92979257800647 311.74405873728205
21 1 3 0.0 312.10747866397736 311.92979257800647 312.11712286489586
22 1 8 0.0 310.63498045323865 315.6488985215595 312.579722383137
23 1 10 0.0 307.719105943553 318.38708694527423 313.14677985710995
24 1 10 0.0 304.0 319.85958515601294 313.8033727217102
25 1 8 0.0 300.0 319.85958515601294 314.5495009769378
26 1 8 0.0 296.280894056447 318.38708694527423 315.3851646227927
27 1 6 0.0 293.36501954676135 315.6488985215595 316.31036365927486
28 1 8 0.0 291.89252133602264 311.92979257800647 317.3400206514889
29 1 17 0.0 291.89252133602264 307.92979257800647 318.4592130343303
30 1 2 0.0 293.36501954676135 304.21068663445345 319.66794080779897
31 1 5 0.0 296.280894056447 301.4724982107387 320.9811265369995
32 1 7 0.0 300.0 300.0 322.38384765682736
33 1 6 0.0 304.0 300.0 322.38384765682736
34 1 18 0.0 307.719105943553 301.4724982107387 322.47338304745466
35 1 6 0.0 310.63498045323865 304.21068663445345 322.65245382870927
36 1 17 0.0 312.10747866397736 307.92979257800647 322.9359825656957
37 1 2 0.0 312.10747866397736 311.92979257800647 323.30904669330954
38 1 17 0.0 310.63498045323865 315.6488985215595 323.77164621155066
39 1 6 0.0 307.719105943553 318.38708694527423 324.3387036855236
40 1 8 0.0 304.0 319.85958515601294 324.9952965501239
41 1 17 0.0 300.0 319.85958515601294 325.74142480535147
42 1 8 0.0 296.280894056447 318.38708694527423 326.57708845120635
43 1 8 0.0 293.36501954676135 315.6488985215595 327.50228748768853
44 1 17 0.0 291.89252133602264 311.92979257800647 328.53194447990256
45 1 2 0.0 291.89252133602264 307.92979257800647 329.65113686274395
46 1 8 0.0 293.36501954676135 304.21068663445345 330.85986463621265
47 1 12 0.0 296.280894056447 301.4724982107387 332.1730503654132
48 1 8 0.0 300.0 300.0 333.57577148524103
49 1 6 0.0 304.0 300.0 333.57577148524103
50 1 7 0.0 307.719105943553 301.4724982107387 333.66530687586834
51 1 17 0.0 310.63498045323865 304.21068663445345 333.84437765712295
52 1 8 0.0 312.10747866397736 307.92979257800647 334.1279063941094
53 1 10 0.0 312.10747866397736 311.92979257800647 334.5009705217232
54 1 7 0.0 310.63498045323865 315.6488985215595 334.96357003996434
55 1 8 0.0 307.719105943553 318.38708694527423 335.5306275139373
56 1 8 0.0 304.0 319.85958515601294 336.1872203785376
57 1 8 0.0 300.0 319.85958515601294 336.93334863376515
58 1 8 0.0 296.280894056447 318.38708694527423 337.76901227962003
59 1 8 0.0 293.36501954676135 315.6488985215595 338.6942113161022
60 1 2 0.0 291.89252133602264 311.92979257800647 339.72386830831624
61 1 2 0.0 291.89252133602264 307.92979257800647 340.84306069115763
62 1 8 0.0 293.36501954676135 304.21068663445345 342.0517884646263
63 1 8 0.0 296.280894056447 301.4724982107387 343.36497419382687
64 1 8 0.0 300.0 300.0 344.7676953136547
65 1 8 0.0 304.0 300.0 344.7676953136547
66 1 8 0.0 307.719105943553 301.4724982107387 344.857230704282
67 1 8 0.0 310.63498045323865 304.21068663445345 345.0363014855366
68 1 8 0.0 312.10747866397736 307.92979257800647 345.3198302225231
69 1 8 0.0 312.10747866397736 311.92979257800647 345.6928943501369
70 1 2 0.0 310.63498045323865 315.6488985215595 346.155493868378
71 1 7 0.0 307.719105943553 318.38708694527423 346.722551342351
72 1 2 0.0 304.0 319.85958515601294 347.37914420695125
73 1 8 0.0 300.0 319.85958515601294 348.1252724621788
74 1 8 0.0 296.280894056447 318.38708694527423 348.9609361080337
75 1 8 0.0 293.36501954676135 315.6488985215595 349.8861351445159
76 1 7 0.0 291.89252133602264 311.92979257800647 350.9157921367299
77 1 2 0.0 291.89252133602264 307.92979257800647 352.0349845195713
78 1 7 0.0 293.36501954676135 304.21068663445345 353.24371229304
79 1 8 0.0 296.280894056447 301.4724982107387 354.55689802224055
80 1 7 0.0 300.0 300.0 355.9596191420684
81 1 8 0.0 304.0 300.0 355.9596191420684
82 1 8 0.0 307.719105943553 301.4724982107387 356.0491545326957
83 1 6 0.0 310.63498045323865 304.21068663445345 356.2282253139503
84 1 8 0.0 312.10747866397736 307.92979257800647 356.51175405093676
85 1 15 0.0 312.10747866397736 311.92979257800647 356.8848181785506
86 1 6 0.0 310.63498045323865 315.6488985215595 357.3474176967917
87 1 4 0.0 307.719105943553 318.38708694527423 357.91447517076466
88 1 2 0.0 304.0 319.85958515601294 358.57106803536493
89 1 3 0.0 300.0 319.85958515601294 359.3171962905925
90 1 5 0.0 296.280894056447 318.38708694527423 360.1528599364474
91 1 6 0.0 293.36501954676135 315.6488985215595 361.07805897292957
92 1 6 0.0 291.89252133602264 311.92979257800647 362.1077159651436
93 1 8 0.0 291.89252133602264 307.92979257800647 363.226908347985
94 1 7 0.0 293.36501954676135 304.21068663445345 364.4356361214537
95 1 7 0.0 296.280894056447 301.4724982107387 365.7488218506542
96 1 8 0.0 300.0 300.0 367.15154297048207
97 1 7 0.0 304.0 300.0 367.15154297048207
98 1 7 0.0 307.719105943553 301.4724982107387 367.2410783611094
99 1 7 0.0 310.63498045323865 304.21068663445345 367.420149142364
100 1 10 0.0 312.10747866397736 307.92979257800647 367.70367787935044
101 1 7 0.0 312.10747866397736 311.92979257800647 368.07674200696425
102 1 4 0.0 310.63498045323865 315.6488985215595 368.5393415252054
103 1 3 0.0 307.719105943553 318.38708694527423 369.10639899917834
104 1 3 0.0 304.0 319.85958515601294 369.7629918637786
105 1 12 0.0 300.0 319.85958515601294 370.5091201190062
106 1 3 0.0 296.280894056447 318.38708694527423 371.34478376486106
107 1 4 0.0 293.36501954676135 315.6488985215595 372.26998280134325
108 1 7 0.0 291.89252133602264 311.92979257800647 373.2996397935573
109 1 8 0.0 291.89252133602264 307.92979257800647 374.41883217639867
110 1 7 0.0 293.36501954676135 304.21068663445345 375.62755994986736
111 1 7 0.0 296.280894056447 301.4724982107387 376.9407456790679

Bonds

1 1 1 2
2 1 2 3
3 1 3 4
4 1 4 5
5 1 5 6
6 1 6 7
7 1 7 8
8 1 8 9
9 1 9 10
10 1 10 11
11 1 11 12
12 1 12 13
13 1 13 14
14 1 14 15
15 1 15 16
16 1 16 17
17 1 17 18
18 1 18 19
19 1 19 20
20 1 20 21
21 1 21 22
22 1 22 23
23 1 23 24
24 1 24 25
25 1 25 26
26 1 26 27
27 1 27 28
28 1 28 29
29 1 29 30
30 1 30 31
31 1 31 32
32 1 32 33
33 1 33 34
34 1 34 35
35 1 35 36
36 1 36 37
37 1 37 38
38 1 38 39
39 1 39 40
40 1 40 41
41 1 41 42
42 1 42 43
43 1 43 44
44 1 44 45
45 1 45 46
46 1 46 47
47 1 47 48
48 1 48 49
49 1 49 50
50 1 50 51
51 1 51 52
52 1 52 53
53 1 53 54
54 1 54 55
55 1 55 56
56 1 56 57
57 1 57 58
58 1 58 59
59 1 59 60
60 1 60 61
61 1 61 62
62 1 62 63
63 1 63 64
64 1 64 65
65 1 65 66
66 1 66 67
67 1 67 68
68 1 68 69
69 1 69 70
70 1 70 71
71 1 71 72
72 1 72 73
73 1 73 74
74 1 74 75
75 1 75 76
76 1 76 77
77 1 77 78
78 1 78 79
79 1 79 80
80 1 80 81
81 1 81 82
82 1 82 83
83 1 83 84
84 1 84 85
85 1 85 86
86 1 86 87
87 1 87 88
88 1 88 89
89 1 89 90
90 1 90 91
91 1 91 92
92 1 92 93
93 1 93 94
94 1 94 95
95 1 95 96
96 1 96 97
97 1 97 98
98 1 98 99
99 1 99 100
100 1 100 101
101 1 101 102
102 1 102 103
103 1 103 104
104 1 104 105
105 1 105 106
106 1 106 107
107 1 107 108
108 1 108 109
109 1 109 110
110 1 110 111